
         
 *******************************************************************************
 *                                                                             *
 *                               CRYSTAL17                                     *
 *                      public : 1.0.2 - March 1st, 2018                       *
 *                       HTTP://WWW.CRYSTAL.UNITO.IT                           *
 *                                                                             *
 *                              MAIN AUTHORS                                   *
 *                                                                             *
 *  R. DOVESI(1,11), V.R. SAUNDERS(2), C. ROETTI(1,11), R. ORLANDO(1,11),      *
 *  C.M. ZICOVICH-WILSON(1,3), F. PASCALE(4), B. CIVALLERI(1,11),              *
 *  K. DOLL(5), N.M. HARRISON(2,6), I.J. BUSH(7), Ph. D'ARCO(8),               *
 *  M. LLUNELL(9), M. CAUSA'(10), Y. NOEL(8), L. MASCHIO(1,11), A. ERBA(1,11)  *
 *  M. RE'RAT(14), S. CASASSA(1,11)                                            *
 *                                                                             *
 *        CONTRIBUTIONS TO THE CODE HAVE ALSO BEEN GIVEN BY                    *
 *                                                                             *
 *  M. FERRABONE(1,11), M. DE LA PIERRE(1,11), M. FERRERO(1,11),               *
 *  J. BAIMA(1,11), E. ALBANESE(1,11), M.F. PEINTINGER(12), R. BAST(13),       *
 *  B. KIRTMAN(15), V. LACIVITA(1,11), R. DEMICHELIS(1,16)                     *
 *  G. BRANDEBURG(17), S. SALUSTRO(1,11), G. SANSONE(1,11)                     *
 *  M.T. RUGGIERO(18)                                                          *
 *                                                                             *
 * (1) THEORETICAL CHEMISTRY GROUP - UNIVERSITA' DI TORINO - TORINO (ITALY)    *
 * (2) COMPUTATIONAL SCIENCE & ENGINEERING DEPARTMENT - STFC DARESBURY (UK)    *
 * (3) UNIVERSIDAD AUTONOMA DEL ESTADO DE MORELOS - CUERNAVACA (MEXICO)        *
 * (4) UNIVERSITE' DE LORRAINE - NANCY (FRANCE)                                *
 * (5) UNIVERSITAET STUTTGART- STUTTGART (GERMANY)                             *
 * (6) IMPERIAL COLLEGE - LONDON (UK)                                          *
 * (7) OXFORD E-RESEARCH CENTRE - OXFORD (UK)                                  *
 * (8) UPMC - SORBONNE UNIVERSITES - PARIS (FRANCE)                            *
 * (9) UNIVERSIDAD DE BARCELONA - BARCELONA (SPAIN)                            *
 *(10) UNIVERSITA' DI NAPOLI "FEDERICO II" - NAPOLI (ITALY)                    *
 *(11) NIS - NANOSTRUCTURED INTERFACES AND SURFACES - TORINO (ITALY)           *
 *(12) MPI FUER CHEMISCHE ENERGIEKONVERSION - MUELHEIM AN DER RUHR (GERMANY)   *
 *(13) UNIVERSITY OF TROMSO - TROMSO (NORWAY)                                  *
 *(14) UNIVERSITE' DE PAU ET DES PAYS DE L'ADOUR - PAU (FRANCE)                *
 *(15) UNIVERSITY OF CALIFORNIA SANTA BARBARA - SANTA BARBARA (USA)            *
 *(16) CURTIN UNIVERSITY - PERTH (AUSTRALIA)                                   *
 *(17) UNIVERSITY COLLEGE LONDON - LONDON (UK)                                 *
 *(18) CAMBRIDGE UNIVERSITY - CAMBRIDGE (UK)                                   *
 *                                                                             *
 *******************************************************************************
 EEEEEEEEEE STARTING  DATE 23 03 2023 TIME 09:10:24.3
 substitutionscBN_O_N_117                                                        

 CRYSTAL CALCULATION
 (INPUT ACCORDING TO THE INTERNATIONAL TABLES FOR X-RAY CRYSTALLOGRAPHY)
 CRYSTAL FAMILY                       :  TRICLINIC   
 CRYSTAL CLASS  (GROTH - 1921)        :  TRICLINIC PEDIAL                     

 SPACE GROUP (NONCENTROSYMMETRIC)     :  P 1             

 LATTICE PARAMETERS  (ANGSTROMS AND DEGREES) - CONVENTIONAL CELL
        A           B           C        ALPHA        BETA       GAMMA
     7.59965     7.59952     7.59966    60.00060    59.99890    60.00030


 NUMBER OF IRREDUCIBLE ATOMS IN THE CONVENTIONAL CELL:   54

 INPUT COORDINATES

 ATOM AT. N.              COORDINATES
   1   5     2.500030000000E-01  2.499990000000E-01  2.500050000000E-01
   2   8     5.000030000000E-01  4.999950000000E-01  5.000120000000E-01
   3   5     2.497810000000E-01  2.497770000000E-01  5.836080000000E-01
   4   7     5.000650000000E-01  5.000730000000E-01  8.327690000000E-01
   5   5     2.497760000000E-01  2.497770000000E-01  9.168350000000E-01
   6   7     5.000770000000E-01  5.000720000000E-01  1.670850000000E-01
   7   5     2.497850000000E-01  5.836020000000E-01  2.497810000000E-01
   8   7     5.000670000000E-01  8.327710000000E-01  5.000700000000E-01
   9   5     2.354100000000E-01  5.881990000000E-01  5.881930000000E-01
  10   7     4.997150000000E-01  8.334310000000E-01  8.334260000000E-01
  11   5     2.497740000000E-01  5.836090000000E-01  9.168380000000E-01
  12   7     5.000760000000E-01  8.327650000000E-01  1.670870000000E-01
  13   5     2.497840000000E-01  9.168280000000E-01  2.497790000000E-01
  14   7     5.000680000000E-01  1.670930000000E-01  5.000710000000E-01
  15   5     2.497770000000E-01  9.168330000000E-01  5.836120000000E-01
  16   7     5.000660000000E-01  1.670950000000E-01  8.327640000000E-01
  17   5     2.494470000000E-01  9.168500000000E-01  9.168540000000E-01
  18   7     5.001060000000E-01  1.666320000000E-01  1.666290000000E-01
  19   5     5.836090000000E-01  2.497750000000E-01  2.497830000000E-01
  20   7     8.327660000000E-01  5.000740000000E-01  5.000710000000E-01
  21   5     5.881930000000E-01  2.354030000000E-01  5.882050000000E-01
  22   7     8.334250000000E-01  4.997210000000E-01  8.334240000000E-01
  23   5     5.836080000000E-01  2.497750000000E-01  9.168380000000E-01
  24   7     8.327680000000E-01  5.000700000000E-01  1.670900000000E-01
  25   5     5.882140000000E-01  5.882030000000E-01  2.353820000000E-01
  26   7     8.334270000000E-01  8.334300000000E-01  4.997150000000E-01
  27   5     5.881960000000E-01  5.882030000000E-01  5.882070000000E-01
  28   7     8.334250000000E-01  8.334310000000E-01  8.334240000000E-01
  29   5     5.838680000000E-01  5.838680000000E-01  9.161300000000E-01
  30   7     8.333300000000E-01  8.333320000000E-01  1.666670000000E-01
  31   5     5.836130000000E-01  9.168310000000E-01  2.497800000000E-01
  32   7     8.327610000000E-01  1.670920000000E-01  5.000720000000E-01
  33   5     5.838710000000E-01  9.161250000000E-01  5.838730000000E-01
  34   7     8.333270000000E-01  1.666720000000E-01  8.333300000000E-01
  35   5     5.838640000000E-01  9.161330000000E-01  9.161360000000E-01
  36   7     8.333290000000E-01  1.666710000000E-01  1.666670000000E-01
  37   5     9.168340000000E-01  2.497740000000E-01  2.497830000000E-01
  38   7     1.670960000000E-01  5.000730000000E-01  5.000670000000E-01
  39   6     9.168320000000E-01  2.497760000000E-01  5.836120000000E-01
  40   7     1.670820000000E-01  5.000770000000E-01  8.327630000000E-01
  41   5     9.168510000000E-01  2.494470000000E-01  9.168530000000E-01
  42   7     1.666300000000E-01  5.001100000000E-01  1.666290000000E-01
  43   5     9.168370000000E-01  5.836060000000E-01  2.497810000000E-01
  44   7     1.670980000000E-01  8.327630000000E-01  5.000660000000E-01
  45   5     9.161310000000E-01  5.838670000000E-01  5.838700000000E-01
  46   7     1.666660000000E-01  8.333350000000E-01  8.333280000000E-01
  47   5     9.161350000000E-01  5.838630000000E-01  9.161360000000E-01
  48   7     1.666690000000E-01  8.333320000000E-01  1.666660000000E-01
  49   5     9.168540000000E-01  9.168480000000E-01  2.494500000000E-01
  50   7     1.666270000000E-01  1.666330000000E-01  5.001060000000E-01
  51   5     9.161360000000E-01  9.161320000000E-01  5.838660000000E-01
  52   7     1.666650000000E-01  1.666720000000E-01  8.333270000000E-01
  53   5     9.168510000000E-01  9.168500000000E-01  9.168540000000E-01
  54   7     1.666310000000E-01  1.666320000000E-01  1.666300000000E-01

 *******************************************************************************

 << INFORMATION >>: FROM NOW ON, ALL COORDINATES REFER TO THE PRIMITIVE CELL

 *******************************************************************************

 LATTICE PARAMETERS  (ANGSTROMS AND DEGREES) - PRIMITIVE CELL
       A          B          C        ALPHA      BETA     GAMMA        VOLUME
    7.59965    7.59952    7.59966    60.00060  59.99890  60.00030    310.354736

 COORDINATES OF THE EQUIVALENT ATOMS (FRACTIONAL UNITS)

 N. ATOM EQUIV AT. N.          X                  Y                  Z

   1   1   1    5 B     2.50003000000E-01  2.49999000000E-01  2.50005000000E-01

   2   2   1    8 O    -4.99997000000E-01  4.99995000000E-01 -4.99988000000E-01

   3   3   1    5 B     2.49781000000E-01  2.49777000000E-01 -4.16392000000E-01

   4   4   1    7 N    -4.99935000000E-01 -4.99927000000E-01 -1.67231000000E-01

   5   5   1    5 B     2.49776000000E-01  2.49777000000E-01 -8.31650000000E-02

   6   6   1    7 N    -4.99923000000E-01 -4.99928000000E-01  1.67085000000E-01

   7   7   1    5 B     2.49785000000E-01 -4.16398000000E-01  2.49781000000E-01

   8   8   1    7 N    -4.99933000000E-01 -1.67229000000E-01 -4.99930000000E-01

   9   9   1    5 B     2.35410000000E-01 -4.11801000000E-01 -4.11807000000E-01

  10  10   1    7 N     4.99715000000E-01 -1.66569000000E-01 -1.66574000000E-01

  11  11   1    5 B     2.49774000000E-01 -4.16391000000E-01 -8.31620000000E-02

  12  12   1    7 N    -4.99924000000E-01 -1.67235000000E-01  1.67087000000E-01

  13  13   1    5 B     2.49784000000E-01 -8.31720000000E-02  2.49779000000E-01

  14  14   1    7 N    -4.99932000000E-01  1.67093000000E-01 -4.99929000000E-01

  15  15   1    5 B     2.49777000000E-01 -8.31670000000E-02 -4.16388000000E-01

  16  16   1    7 N    -4.99934000000E-01  1.67095000000E-01 -1.67236000000E-01

  17  17   1    5 B     2.49447000000E-01 -8.31500000000E-02 -8.31460000000E-02

  18  18   1    7 N    -4.99894000000E-01  1.66632000000E-01  1.66629000000E-01

  19  19   1    5 B    -4.16391000000E-01  2.49775000000E-01  2.49783000000E-01

  20  20   1    7 N    -1.67234000000E-01 -4.99926000000E-01 -4.99929000000E-01

  21  21   1    5 B    -4.11807000000E-01  2.35403000000E-01 -4.11795000000E-01

  22  22   1    7 N    -1.66575000000E-01  4.99721000000E-01 -1.66576000000E-01

  23  23   1    5 B    -4.16392000000E-01  2.49775000000E-01 -8.31620000000E-02

  24  24   1    7 N    -1.67232000000E-01 -4.99930000000E-01  1.67090000000E-01

  25  25   1    5 B    -4.11786000000E-01 -4.11797000000E-01  2.35382000000E-01

  26  26   1    7 N    -1.66573000000E-01 -1.66570000000E-01  4.99715000000E-01

  27  27   1    5 B    -4.11804000000E-01 -4.11797000000E-01 -4.11793000000E-01

  28  28   1    7 N    -1.66575000000E-01 -1.66569000000E-01 -1.66576000000E-01

  29  29   1    5 B    -4.16132000000E-01 -4.16132000000E-01 -8.38700000000E-02

  30  30   1    7 N    -1.66670000000E-01 -1.66668000000E-01  1.66667000000E-01

  31  31   1    5 B    -4.16387000000E-01 -8.31690000000E-02  2.49780000000E-01

  32  32   1    7 N    -1.67239000000E-01  1.67092000000E-01 -4.99928000000E-01

  33  33   1    5 B    -4.16129000000E-01 -8.38750000000E-02 -4.16127000000E-01

  34  34   1    7 N    -1.66673000000E-01  1.66672000000E-01 -1.66670000000E-01

  35  35   1    5 B    -4.16136000000E-01 -8.38670000000E-02 -8.38640000000E-02

  36  36   1    7 N    -1.66671000000E-01  1.66671000000E-01  1.66667000000E-01

  37  37   1    5 B    -8.31660000000E-02  2.49774000000E-01  2.49783000000E-01

  38  38   1    7 N     1.67096000000E-01 -4.99927000000E-01 -4.99933000000E-01

  39  39   1    6 C    -8.31680000000E-02  2.49776000000E-01 -4.16388000000E-01

  40  40   1    7 N     1.67082000000E-01 -4.99923000000E-01 -1.67237000000E-01

  41  41   1    5 B    -8.31490000000E-02  2.49447000000E-01 -8.31470000000E-02

  42  42   1    7 N     1.66630000000E-01 -4.99890000000E-01  1.66629000000E-01

  43  43   1    5 B    -8.31630000000E-02 -4.16394000000E-01  2.49781000000E-01

  44  44   1    7 N     1.67098000000E-01 -1.67237000000E-01 -4.99934000000E-01

  45  45   1    5 B    -8.38690000000E-02 -4.16133000000E-01 -4.16130000000E-01

  46  46   1    7 N     1.66666000000E-01 -1.66665000000E-01 -1.66672000000E-01

  47  47   1    5 B    -8.38650000000E-02 -4.16137000000E-01 -8.38640000000E-02

  48  48   1    7 N     1.66669000000E-01 -1.66668000000E-01  1.66666000000E-01

  49  49   1    5 B    -8.31460000000E-02 -8.31520000000E-02  2.49450000000E-01

  50  50   1    7 N     1.66627000000E-01  1.66633000000E-01 -4.99894000000E-01

  51  51   1    5 B    -8.38640000000E-02 -8.38680000000E-02 -4.16134000000E-01

  52  52   1    7 N     1.66665000000E-01  1.66672000000E-01 -1.66673000000E-01

  53  53   1    5 B    -8.31490000000E-02 -8.31500000000E-02 -8.31460000000E-02

  54  54   1    7 N     1.66631000000E-01  1.66632000000E-01  1.66630000000E-01

 NUMBER OF SYMMETRY OPERATORS         :    1
 *******************************************************************************
 * GEOMETRY EDITING - INPUT COORDINATES ARE GIVEN IN ANGSTROM         
 *******************************************************************************

 GCALCO - MAX INDICES DIRECT LATTICE VECTOR    14    14    14
 NO.OF VECTORS CREATED 6999 STARS 3499 RMAX   151.98550 BOHR

 GEOMETRY FOR WAVE FUNCTION - DIMENSIONALITY OF THE SYSTEM    3
 (NON PERIODIC DIRECTION: LATTICE PARAMETER FORMALLY SET TO 500)
 *******************************************************************************
 LATTICE PARAMETERS (ANGSTROMS AND DEGREES) - BOHR = 0.5291772083 ANGSTROM
 PRIMITIVE CELL - CENTRING CODE 1/0 VOLUME=   310.354736 - DENSITY  3.629 g/cm^3
         A              B              C           ALPHA      BETA       GAMMA 
     7.59964700     7.59952000     7.59966500    60.000600  59.998900  60.000300
 *******************************************************************************
 ATOMS IN THE ASYMMETRIC UNIT   54 - ATOMS IN THE UNIT CELL:   54
     ATOM                 X/A                 Y/B                 Z/C    
 *******************************************************************************
      1 T   5 B     2.500030000000E-01  2.499990000000E-01  2.500050000000E-01
      2 T   8 O    -4.999970000000E-01  4.999950000000E-01 -4.999880000000E-01
      3 T   5 B     2.497810000000E-01  2.497770000000E-01 -4.163920000000E-01
      4 T   7 N    -4.999350000000E-01 -4.999270000000E-01 -1.672310000000E-01
      5 T   5 B     2.497760000000E-01  2.497770000000E-01 -8.316500000000E-02
      6 T   7 N    -4.999230000000E-01 -4.999280000000E-01  1.670850000000E-01
      7 T   5 B     2.497850000000E-01 -4.163980000000E-01  2.497810000000E-01
      8 T   7 N    -4.999330000000E-01 -1.672290000000E-01 -4.999300000000E-01
      9 T   5 B     2.354100000000E-01 -4.118010000000E-01 -4.118070000000E-01
     10 T   7 N     4.997150000000E-01 -1.665690000000E-01 -1.665740000000E-01
     11 T   5 B     2.497740000000E-01 -4.163910000000E-01 -8.316200000000E-02
     12 T   7 N    -4.999240000000E-01 -1.672350000000E-01  1.670870000000E-01
     13 T   5 B     2.497840000000E-01 -8.317200000000E-02  2.497790000000E-01
     14 T   7 N    -4.999320000000E-01  1.670930000000E-01 -4.999290000000E-01
     15 T   5 B     2.497770000000E-01 -8.316700000000E-02 -4.163880000000E-01
     16 T   7 N    -4.999340000000E-01  1.670950000000E-01 -1.672360000000E-01
     17 T   5 B     2.494470000000E-01 -8.315000000000E-02 -8.314600000000E-02
     18 T   7 N    -4.998940000000E-01  1.666320000000E-01  1.666290000000E-01
     19 T   5 B    -4.163910000000E-01  2.497750000000E-01  2.497830000000E-01
     20 T   7 N    -1.672340000000E-01 -4.999260000000E-01 -4.999290000000E-01
     21 T   5 B    -4.118070000000E-01  2.354030000000E-01 -4.117950000000E-01
     22 T   7 N    -1.665750000000E-01  4.997210000000E-01 -1.665760000000E-01
     23 T   5 B    -4.163920000000E-01  2.497750000000E-01 -8.316200000000E-02
     24 T   7 N    -1.672320000000E-01 -4.999300000000E-01  1.670900000000E-01
     25 T   5 B    -4.117860000000E-01 -4.117970000000E-01  2.353820000000E-01
     26 T   7 N    -1.665730000000E-01 -1.665700000000E-01  4.997150000000E-01
     27 T   5 B    -4.118040000000E-01 -4.117970000000E-01 -4.117930000000E-01
     28 T   7 N    -1.665750000000E-01 -1.665690000000E-01 -1.665760000000E-01
     29 T   5 B    -4.161320000000E-01 -4.161320000000E-01 -8.387000000000E-02
     30 T   7 N    -1.666700000000E-01 -1.666680000000E-01  1.666670000000E-01
     31 T   5 B    -4.163870000000E-01 -8.316900000000E-02  2.497800000000E-01
     32 T   7 N    -1.672390000000E-01  1.670920000000E-01 -4.999280000000E-01
     33 T   5 B    -4.161290000000E-01 -8.387500000000E-02 -4.161270000000E-01
     34 T   7 N    -1.666730000000E-01  1.666720000000E-01 -1.666700000000E-01
     35 T   5 B    -4.161360000000E-01 -8.386700000000E-02 -8.386400000000E-02
     36 T   7 N    -1.666710000000E-01  1.666710000000E-01  1.666670000000E-01
     37 T   5 B    -8.316600000000E-02  2.497740000000E-01  2.497830000000E-01
     38 T   7 N     1.670960000000E-01 -4.999270000000E-01 -4.999330000000E-01
     39 T   6 C    -8.316800000000E-02  2.497760000000E-01 -4.163880000000E-01
     40 T   7 N     1.670820000000E-01 -4.999230000000E-01 -1.672370000000E-01
     41 T   5 B    -8.314900000000E-02  2.494470000000E-01 -8.314700000000E-02
     42 T   7 N     1.666300000000E-01 -4.998900000000E-01  1.666290000000E-01
     43 T   5 B    -8.316300000000E-02 -4.163940000000E-01  2.497810000000E-01
     44 T   7 N     1.670980000000E-01 -1.672370000000E-01 -4.999340000000E-01
     45 T   5 B    -8.386900000000E-02 -4.161330000000E-01 -4.161300000000E-01
     46 T   7 N     1.666660000000E-01 -1.666650000000E-01 -1.666720000000E-01
     47 T   5 B    -8.386500000000E-02 -4.161370000000E-01 -8.386400000000E-02
     48 T   7 N     1.666690000000E-01 -1.666680000000E-01  1.666660000000E-01
     49 T   5 B    -8.314600000000E-02 -8.315200000000E-02  2.494500000000E-01
     50 T   7 N     1.666270000000E-01  1.666330000000E-01 -4.998940000000E-01
     51 T   5 B    -8.386400000000E-02 -8.386800000000E-02 -4.161340000000E-01
     52 T   7 N     1.666650000000E-01  1.666720000000E-01 -1.666730000000E-01
     53 T   5 B    -8.314900000000E-02 -8.315000000000E-02 -8.314600000000E-02
     54 T   7 N     1.666310000000E-01  1.666320000000E-01  1.666300000000E-01

 T = ATOM BELONGING TO THE ASYMMETRIC UNIT

 ****    1 SYMMOPS - TRANSLATORS IN FRACTIONAL UNITS
 **** MATRICES AND TRANSLATORS IN THE CRYSTALLOGRAPHIC REFERENCE FRAME
   V INV                    ROTATION MATRICES                   TRANSLATORS
   1   1  1.00  0.00  0.00  0.00  1.00  0.00  0.00  0.00  1.00  0.00  0.00  0.00

 DIRECT LATTICE VECTORS CARTESIAN COMPONENTS (ANGSTROM)
          X                    Y                    Z
   0.658150725753E+01   0.379978903936E+01   0.000000000000E+00
   0.000000000000E+00   0.759952000000E+01   0.000000000000E+00
   0.219403327392E+01   0.379976357845E+01   0.620507234873E+01


 CARTESIAN COORDINATES - PRIMITIVE CELL
 *******************************************************************************
 *      ATOM          X(ANGSTROM)         Y(ANGSTROM)         Z(ANGSTROM)
 *******************************************************************************
    1     5 B    -4.387591409981E+00  1.913757988165E-06  1.551299112545E+00
    2     8 O     2.193783064725E+00 -3.799728270617E+00 -3.102461713498E+00
    3     5 B     7.303575612980E-01  1.265109257121E+00 -2.583742485433E+00
    4     7 N     2.924271048307E+00 -2.534501992061E+00 -1.037680453951E+00
    5     5 B     1.461435779532E+00  2.531274076133E+00 -5.160448418823E-01
    6     7 N    -2.923656803134E+00  2.535588727022E+00  1.036774513388E+00
    7     5 B     2.191989615517E+00 -1.266185877373E+00  1.549909176339E+00
    8     7 N     2.194331535120E+00 -1.270326830310E+00 -3.102101819301E+00
    9     5 B     6.458343630609E-01 -3.799750837716E+00 -2.555292228714E+00
   10     7 N     2.923409000628E+00  2.531460673380E-05 -1.033603721418E+00
   11     5 B     1.461429198617E+00 -2.531279163514E+00 -5.160262266652E-01
   12     7 N    -2.923658996575E+00 -2.535620365880E+00  1.036786923533E+00
   13     5 B     2.191978645943E+00  1.266160374830E+00  1.549896766194E+00
   14     7 N     2.194340310660E+00  1.270367494682E+00 -3.102095614229E+00
   15     5 B     7.303400114021E-01 -1.265105329861E+00 -2.583717665144E+00
   16     7 N     2.924266659648E+00  2.534529838351E+00 -1.037711479312E+00
   17     5 B     1.459312150276E+00  1.074600727150E-05 -5.159269455076E-01
   18     7 N    -2.924466418597E+00 -1.772008796431E-05  1.033945000397E+00
   19     5 B    -2.192448175211E+00  1.265088496029E+00  1.549921586483E+00
   20     7 N    -3.479371381662E-03 -2.534499983287E+00  3.102976734503E+00
   21     5 B     2.967704566295E+00  2.459235478199E+00 -2.555217767846E+00
   22     7 N    -1.461787858061E+00  2.531740456844E+00 -1.033616131562E+00
   23     5 B    -2.922947165105E+00 -2.758838885390E-05 -5.160262266652E-01
   24     7 N    -7.340376019518E-01  3.799748142094E+00  1.036805538750E+00
   25     5 B    -2.193736607468E+00 -3.799763516179E+00  1.460562339589E+00
   26     7 N     8.992907005047E-05  4.550553678767E-06  3.100767728746E+00
   27     5 B     2.967728698883E+00 -2.459154866906E+00 -2.555205357701E+00
   28     7 N    -1.461787858061E+00 -2.531743723956E+00 -1.033616131562E+00
   29     5 B    -2.922789348776E+00  2.537216559508E+00 -5.204194178881E-01
   30     7 N    -7.312668709479E-01 -1.266612442220E+00  1.034180793146E+00
   31     5 B    -2.192428431282E+00 -1.265122290986E+00  1.549902971266E+00
   32     7 N    -3.510084884677E-03  2.534501448891E+00  3.102982939575E+00
   33     5 B     2.929754739785E+00 -7.332410741836E-06 -2.582098141261E+00
   34     7 N    -1.462639084900E+00 -1.636738276886E-06 -1.034199408363E+00
   35     5 B     3.658704746928E+00  1.262547711094E+00 -5.203821874540E-01
   36     7 N    -7.312734524552E-01  1.266600155271E+00  1.034180793146E+00
   37     5 B     6.745806806507E-04  2.531265599149E+00  1.549921586483E+00
   38     7 N     2.873899971925E-03  2.535617109214E+00 -3.102120434518E+00
   39     6 C    -1.460939922457E+00 -1.910421082166E-05 -2.583717665144E+00
   40     7 N     7.327278529719E-01 -3.799759546255E+00 -1.037717684385E+00
   41     5 B    -7.296730315836E-01  1.263789864348E+00 -5.159331505800E-01
   42     7 N     1.462266124724E+00 -2.532614399857E+00  1.033945000397E+00
   43     5 B     6.899371358753E-04 -2.531287640371E+00  1.549909176339E+00
   44     7 N     2.884868953165E-03 -2.535614782172E+00 -3.102126639591E+00
   45     5 B    -1.464987498460E+00  2.537228818996E+00 -2.582116756478E+00
   46     7 N     7.312295747525E-01 -1.266592555914E+00 -1.034211818508E+00
   47     5 B    -7.359585126374E-01  3.799745865231E+00 -5.203821874540E-01
   48     7 N     1.462603982738E+00  1.636607805482E-06  1.034174588074E+00
   49     5 B     7.559774558382E-05 -1.521861350776E-06  1.547855297391E+00
   50     7 N    -1.272596341758E-04 -7.498660961097E-07 -3.101878436697E+00
   51     5 B    -1.464963367057E+00 -2.537232868313E+00 -2.582141576767E+00
   52     7 N     7.312207992120E-01  1.266601042773E+00 -1.034218023580E+00
   53     5 B    -7.296708375504E-01 -1.263783889328E+00 -5.159269455076E-01
   54     7 N     1.462274900264E+00  2.532640469135E+00  1.033951205469E+00

 *******************************************************************************
 LOCAL ATOMIC FUNCTIONS BASIS SET
 *******************************************************************************
   ATOM   X(AU)   Y(AU)   Z(AU)  N. TYPE  EXPONENT  S COEF   P COEF   D/F/G COEF
 *******************************************************************************
   1 B   -8.291   0.000   2.932
                                  1 S  
                                         8.393E+02-5.593E-03 0.000E+00 0.000E+00
                                         1.263E+02-4.157E-02 0.000E+00 0.000E+00
                                         2.862E+01-1.830E-01 0.000E+00 0.000E+00
                                         7.879E+00-4.654E-01 0.000E+00 0.000E+00
                                         2.409E+00-4.417E-01 0.000E+00 0.000E+00
                                  2 S  
                                         1.028E+00 1.000E+00 0.000E+00 0.000E+00
                                  3 S  
                                         2.245E-01 1.000E+00 0.000E+00 0.000E+00
                           4-     6 P  
                                         6.033E+00 0.000E+00-3.560E-02 0.000E+00
                                         1.250E+00 0.000E+00-1.990E-01 0.000E+00
                                         3.387E-01 0.000E+00-5.085E-01 0.000E+00
                           7-     9 P  
                                         2.288E-01 0.000E+00 1.000E+00 0.000E+00
                          10-    14 D  
                                         5.684E-01 0.000E+00 0.000E+00 1.000E+00
   2 O    4.146  -7.180  -5.863
                                 15 S  
                                         2.266E+03-5.343E-03 0.000E+00 0.000E+00
                                         3.409E+02-3.989E-02 0.000E+00 0.000E+00
                                         7.736E+01-1.785E-01 0.000E+00 0.000E+00
                                         2.148E+01-4.643E-01 0.000E+00 0.000E+00
                                         6.659E+00-4.431E-01 0.000E+00 0.000E+00
                                 16 S  
                                         8.479E-01 1.000E+00 0.000E+00 0.000E+00
                                 17 S  
                                         2.791E-01 1.000E+00 0.000E+00 0.000E+00
                          18-    20 P  
                                         1.772E+01 0.000E+00 4.339E-02 0.000E+00
                                         3.864E+00 0.000E+00 2.309E-01 0.000E+00
                                         1.048E+00 0.000E+00 5.138E-01 0.000E+00
                          21-    23 P  
                                         2.624E-01 0.000E+00 1.000E+00 0.000E+00
                          24-    28 D  
                                         4.790E-01 0.000E+00 0.000E+00 1.000E+00
   3 B    1.380   2.391  -4.883
   4 N    5.526  -4.790  -1.961
                                 43 S  
                                         1.713E+03-5.393E-03 0.000E+00 0.000E+00
                                         2.576E+02-4.022E-02 0.000E+00 0.000E+00
                                         5.846E+01-1.793E-01 0.000E+00 0.000E+00
                                         1.620E+01-4.638E-01 0.000E+00 0.000E+00
                                         5.005E+00-4.417E-01 0.000E+00 0.000E+00
                                 44 S  
                                         6.349E-01 1.000E+00 0.000E+00 0.000E+00
                                 45 S  
                                         2.108E-01 1.000E+00 0.000E+00 0.000E+00
                          46-    48 P  
                                         1.357E+01 0.000E+00-4.007E-02 0.000E+00
                                         2.926E+00 0.000E+00-2.181E-01 0.000E+00
                                         7.993E-01 0.000E+00-5.129E-01 0.000E+00
                          49-    51 P  
                                         2.392E-01 0.000E+00 1.000E+00 0.000E+00
                          52-    56 D  
                                         5.120E-01 0.000E+00 0.000E+00 1.000E+00
   5 B    2.762   4.783  -0.975
   6 N   -5.525   4.792   1.959
   7 B    4.142  -2.393   2.929
   8 N    4.147  -2.401  -5.862
   9 B    1.220  -7.180  -4.829
  10 N    5.524   0.000  -1.953
  11 B    2.762  -4.783  -0.975
  12 N   -5.525  -4.792   1.959
  13 B    4.142   2.393   2.929
  14 N    4.147   2.401  -5.862
  15 B    1.380  -2.391  -4.883
  16 N    5.526   4.790  -1.961
  17 B    2.758   0.000  -0.975
  18 N   -5.526  -0.000   1.954
  19 B   -4.143   2.391   2.929
  20 N   -0.007  -4.790   5.864
  21 B    5.608   4.647  -4.829
  22 N   -2.762   4.784  -1.953
  23 B   -5.524  -0.000  -0.975
  24 N   -1.387   7.180   1.959
  25 B   -4.146  -7.181   2.760
  26 N    0.000   0.000   5.860
  27 B    5.608  -4.647  -4.829
  28 N   -2.762  -4.784  -1.953
  29 B   -5.523   4.795  -0.983
  30 N   -1.382  -2.394   1.954
  31 B   -4.143  -2.391   2.929
  32 N   -0.007   4.790   5.864
  33 B    5.536  -0.000  -4.879
  34 N   -2.764  -0.000  -1.954
  35 B    6.914   2.386  -0.983
  36 N   -1.382   2.394   1.954
  37 B    0.001   4.783   2.929
  38 N    0.005   4.792  -5.862
  39 C   -2.761  -0.000  -4.883
                                533 S  
                                         1.238E+03 5.457E-03 0.000E+00 0.000E+00
                                         1.863E+02 4.064E-02 0.000E+00 0.000E+00
                                         4.225E+01 1.803E-01 0.000E+00 0.000E+00
                                         1.168E+01 4.632E-01 0.000E+00 0.000E+00
                                         3.593E+00 4.409E-01 0.000E+00 0.000E+00
                                534 S  
                                         4.687E-01 1.000E+00 0.000E+00 0.000E+00
                                535 S  
                                         2.355E-01 1.000E+00 0.000E+00 0.000E+00
                         536-   538 P  
                                         9.468E+00 0.000E+00 3.839E-02 0.000E+00
                                         2.010E+00 0.000E+00 2.112E-01 0.000E+00
                                         5.477E-01 0.000E+00 5.133E-01 0.000E+00
                         539-   541 P  
                                         2.105E-01 0.000E+00 1.000E+00 0.000E+00
                         542-   546 D  
                                         5.286E-01 0.000E+00 0.000E+00 1.000E+00
  40 N    1.385  -7.181  -1.961
  41 B   -1.379   2.388  -0.975
  42 N    2.763  -4.786   1.954
  43 B    0.001  -4.783   2.929
  44 N    0.005  -4.792  -5.862
  45 B   -2.768   4.795  -4.879
  46 N    1.382  -2.394  -1.954
  47 B   -1.391   7.180  -0.983
  48 N    2.764   0.000   1.954
  49 B    0.000  -0.000   2.925
  50 N   -0.000  -0.000  -5.862
  51 B   -2.768  -4.795  -4.880
  52 N    1.382   2.394  -1.954
  53 B   -1.379  -2.388  -0.975
  54 N    2.763   4.786   1.954
 INFORMATION **** SET_MPP **** PCRYSTAL CALCULATION
 INFORMATION **** READM2 **** NEW DEFAULT: FOCK/KS MATRIX MIXING SET TO 30 %
 INFORMATION **** READM2 **** NEW DEFAULT: FULL DIRECT SCF MODE
 INFORMATION **** READM2 **** NEW DEFAULT: COULOMB BIPOLAR BUFFER SET TO 32 Mb
 INFORMATION **** READM2 **** NEW DEFAULT: EXCHANGE BIPOLAR BUFFER SET TO 32 Mb

 *******************************************************************************
 NEW DEFAULT: DFT INTEGRATION GRID INCREASED TO XLGRID
 NEW DEFAULT: DIIS ACCELERATOR ACTIVE
 USE KEYWORD NODIIS TO TURN IT OFF
 *******************************************************************************

 WARNING **** RDDFTP **** HSE06-HJS ACTIVE
 RANGE SEPARATION - OMEGA:   0.110000000000000     
 INFORMATION **** DFTD3_INPUT **** PERFORM LATEST DISPERSION CORRECTION DFT-D3(BJ) WITH AUTOMATIC PARAMETER SETUP
 PLEASE CITE:
 (1) DFT-D3 Reference
  S. Grimme, J. Antony, S. Ehrlich, and H. Krieg, J. Chem. Phys. 132 (2010), 154104
 (2) BJ-Damping Reference
  S. Grimme, S. Ehrlich, and L. Goerigk, J. Comput. Chem. 32 (2011), 1456-1465
 (3) General DFT-D Review
  S. Grimme, A. Hansen, J. G. Brandenburg, and C. Bannwarth,
  Chem. Rev. 116 (2016), 5105-5154

 INFORMATION **** TOLINTEG **** COULOMB AND EXCHANGE SERIES TOLERANCES MODIFIED
 INFORMATION **** TOLDEE **** SCF TOL ON TOTAL ENERGY SET TO           7
 INFORMATION **** READM2 **** FULL DIRECT SCF (MONO AND BIEL INT) SELECTED
 INFORMATION **** BIPOSIZE **** COULOMB BIPOLAR BUFFER SET TO   110000000
 INFORMATION **** EXCHSIZE **** EXCHANGE BIPOLAR BUFFER SIZE SET TO   110000000
 INFORMATION **** MAXCYCLE **** MAX NUMBER OF SCF CYCLES SET TO         800
 INFORMATION **** DIIS **** DIIS FOR SCF ACTIVE
 INFORMATION **** DIIS **** LEVEL SHIFTER DISABLED
 INFORMATION **** PPAN ****  MULLIKEN POPULATION ANALYSIS AT THE END OF SCF
 *******************************************************************************
 N. OF ATOMS PER CELL        54  COULOMB OVERLAP TOL         (T1) 10**   -7
 NUMBER OF SHELLS           324  COULOMB PENETRATION TOL     (T2) 10**   -7
 NUMBER OF AO               756  EXCHANGE OVERLAP TOL        (T3) 10**   -7
 N. OF ELECTRONS PER CELL   326  EXCHANGE PSEUDO OVP (F(G))  (T4) 10**   -9
 CORE ELECTRONS PER CELL    108  EXCHANGE PSEUDO OVP (P(G))  (T5) 10**  -30
 N. OF SYMMETRY OPERATORS     1  POLE ORDER IN MONO ZONE                  4
 *******************************************************************************
 TYPE OF CALCULATION :  UNRESTRICTED OPEN SHELL
 KOHN-SHAM HAMILTONIAN

 (EXCHANGE)[CORRELATION] FUNCTIONAL:(HSE06 SR/GGA)[PERDEW-BURKE-ERNZERHOF]

 RANGE-SEPARATED HYBRID FUNCTIONAL 
 OMEGA (SHORT-RANGE)[LONG-RANGE]:(    0.1100)[    0.0000]

 HYBRID EXCHANGE - PERCENTAGE OF FOCK EXCHANGE    25.0000

 SPIN POLARIZED DFT SELECTED

 CAPPA:IS1  6;IS2  6;IS3  6; K PTS MONK NET 112; SYMMOPS:K SPACE   2;G SPACE   1

 *******************************************************************************
 MAX NUMBER OF SCF CYCLES     800  CONVERGENCE ON DELTAP        10**-17
 WEIGHT OF F(I) IN F(I+1)      30% CONVERGENCE ON ENERGY        10**- 7
 SHRINK. FACT.(MONKH.)    6  6  6  NUMBER OF K POINTS IN THE IBZ    112
 SHRINKING FACTOR(GILAT NET)   12  NUMBER OF K POINTS(GILAT NET)    868
 *******************************************************************************
 *** K POINTS COORDINATES (OBLIQUE COORDINATES IN UNITS OF IS =  6)
   1-R(  0  0  0)   2-C(  1  0  0)   3-C(  2  0  0)   4-R(  3  0  0)
   5-C(  0  1  0)   6-C(  1  1  0)   7-C(  2  1  0)   8-C(  3  1  0)
   9-C(  4  1  0)  10-C(  5  1  0)  11-C(  0  2  0)  12-C(  1  2  0)
  13-C(  2  2  0)  14-C(  3  2  0)  15-C(  4  2  0)  16-C(  5  2  0)
  17-R(  0  3  0)  18-C(  1  3  0)  19-C(  2  3  0)  20-R(  3  3  0)
  21-C(  0  0  1)  22-C(  1  0  1)  23-C(  2  0  1)  24-C(  3  0  1)
  25-C(  4  0  1)  26-C(  5  0  1)  27-C(  0  1  1)  28-C(  1  1  1)
  29-C(  2  1  1)  30-C(  3  1  1)  31-C(  4  1  1)  32-C(  5  1  1)
  33-C(  0  2  1)  34-C(  1  2  1)  35-C(  2  2  1)  36-C(  3  2  1)
  37-C(  4  2  1)  38-C(  5  2  1)  39-C(  0  3  1)  40-C(  1  3  1)
  41-C(  2  3  1)  42-C(  3  3  1)  43-C(  4  3  1)  44-C(  5  3  1)
  45-C(  0  4  1)  46-C(  1  4  1)  47-C(  2  4  1)  48-C(  3  4  1)
  49-C(  4  4  1)  50-C(  5  4  1)  51-C(  0  5  1)  52-C(  1  5  1)
  53-C(  2  5  1)  54-C(  3  5  1)  55-C(  4  5  1)  56-C(  5  5  1)
  57-C(  0  0  2)  58-C(  1  0  2)  59-C(  2  0  2)  60-C(  3  0  2)
  61-C(  4  0  2)  62-C(  5  0  2)  63-C(  0  1  2)  64-C(  1  1  2)
  65-C(  2  1  2)  66-C(  3  1  2)  67-C(  4  1  2)  68-C(  5  1  2)
  69-C(  0  2  2)  70-C(  1  2  2)  71-C(  2  2  2)  72-C(  3  2  2)
  73-C(  4  2  2)  74-C(  5  2  2)  75-C(  0  3  2)  76-C(  1  3  2)
  77-C(  2  3  2)  78-C(  3  3  2)  79-C(  4  3  2)  80-C(  5  3  2)
  81-C(  0  4  2)  82-C(  1  4  2)  83-C(  2  4  2)  84-C(  3  4  2)
  85-C(  4  4  2)  86-C(  5  4  2)  87-C(  0  5  2)  88-C(  1  5  2)
  89-C(  2  5  2)  90-C(  3  5  2)  91-C(  4  5  2)  92-C(  5  5  2)
  93-R(  0  0  3)  94-C(  1  0  3)  95-C(  2  0  3)  96-R(  3  0  3)
  97-C(  0  1  3)  98-C(  1  1  3)  99-C(  2  1  3) 100-C(  3  1  3)
 101-C(  4  1  3) 102-C(  5  1  3) 103-C(  0  2  3) 104-C(  1  2  3)
 105-C(  2  2  3) 106-C(  3  2  3) 107-C(  4  2  3) 108-C(  5  2  3)
 109-R(  0  3  3) 110-C(  1  3  3) 111-C(  2  3  3) 112-R(  3  3  3)

 DIRECT LATTICE VECTORS COMPON. (A.U.)     RECIP. LATTICE VECTORS COMPON. (A.U.) 
        X            Y            Z              X            Y            Z
   12.4372463    7.1805607    0.0000000      0.5051910    0.0000000   -0.1786290
    0.0000000   14.3610115    0.0000000     -0.2525974    0.4375169   -0.1786045
    4.1461220    7.1805125   11.7258874      0.0000000    0.0000000    0.5358388

 DISK SPACE FOR EIGENVECTORS (FTN 10)   123451776 REALS

 SYMMETRY ADAPTION OF THE BLOCH FUNCTIONS DISABLED
 TTTTTTTTTTTTTTTTTTTTTTTTTTTTTT gordsh1     TELAPSE        0.82 TCPU        0.60

 MATRIX SIZE: P(G) 7526106, F(G)  623423, P(G) IRR 3779295, F(G) IRR  624287
 MAX G-VECTOR INDEX FOR 1- AND 2-ELECTRON INTEGRALS 139

 TTTTTTTTTTTTTTTTTTTTTTTTTTTTTT INPUT       TELAPSE        1.07 TCPU        0.85

 NEIGHBORS OF THE NON-EQUIVALENT ATOMS

 N = NUMBER OF NEIGHBORS AT DISTANCE R
    ATOM  N     R/ANG      R/AU   NEIGHBORS (ATOM LABELS AND CELL INDICES)
   1 B    1     1.5519     2.9327   50 N   -1 0 1
   1 B    1     1.5519     2.9327   18 N    0 0 0
   1 B    1     1.5519     2.9328   42 N   -1 1 0
   1 B    1     1.5520     2.9328   54 N   -1 0 0
   1 B    1     2.5335     4.7877    7 B   -1 1 0
   1 B    1     2.5336     4.7878   23 B    0 0 0

   2 O    1     1.6418     3.1026   21 B    0-1 0
   2 O    1     1.6418     3.1026    9 B    0 0 0
   2 O    1     1.6418     3.1026   27 B    0 0 0
   2 O    1     1.6420     3.1030   25 B    1 0-1
   2 O    1     2.5294     4.7798   16 N    0-1 0
   2 O    1     2.5294     4.7798    4 N    0 0 0

   3 B    1     1.5495     2.9282   52 N    0 0 0
   3 B    1     1.5500     2.9291   50 N    0 0 0
   3 B    1     1.5530     2.9348   14 N    0 0 0
   3 B    1     1.5531     2.9349   38 N    0 0 0
   3 B    1     2.5302     4.7814   15 B    0 0 0
   3 B    1     2.5303     4.7815   39 C    0 0 0

   4 N    1     1.5200     2.8724   27 B    0 0 0
   4 N    1     1.5531     2.9349   11 B    0 0 0
   4 N    1     1.5531     2.9350   23 B    1-1 0
   4 N    1     1.5572     2.9427   29 B    1-1 0
   4 N    1     2.5284     4.7779   20 N    1 0-1
   4 N    1     2.5284     4.7780    8 N    0 0 0

   5 B    1     1.5496     2.9282   52 N    0 0 0
   5 B    1     1.5500     2.9291   54 N    0 0 0
   5 B    1     1.5531     2.9349   16 N    0 0 0
   5 B    1     1.5531     2.9350   40 N    0 1 0
   5 B    1     2.5302     4.7814   37 B    0 0 0
   5 B    1     2.5303     4.7815   13 B    0 0 0

   6 N    1     1.5200     2.8724   25 B    0 1 0
   6 N    1     1.5531     2.9349    7 B   -1 1 0
   6 N    1     1.5531     2.9350   19 B    0 0 0
   6 N    1     1.5572     2.9427   29 B    0 0 0
   6 N    1     2.5283     4.7778   12 N    0 1 0
   6 N    1     2.5283     4.7779   24 N    0 0 0

   7 B    1     1.5496     2.9283   48 N    0 0 0
   7 B    1     1.5500     2.9291   42 N    0 0 0
   7 B    1     1.5531     2.9348   38 N    0-1 1
   7 B    1     1.5531     2.9349    6 N    1-1 0
   7 B    1     2.5303     4.7815   11 B    0 0 0
   7 B    1     2.5303     4.7815   43 B    0 0 0

   8 N    1     1.5200     2.8725   27 B    0 0 0
   8 N    1     1.5531     2.9349   15 B    0 0 0
   8 N    1     1.5531     2.9349   31 B    1 0-1
   8 N    1     1.5572     2.9427   33 B    0 0 0
   8 N    1     2.5284     4.7779   20 N    1 0-1
   8 N    1     2.5284     4.7780    4 N    0 0 0

   9 B    1     1.5200     2.8724   44 N    0 0 0
   9 B    1     1.5200     2.8724   38 N    0-1 0
   9 B    1     1.5201     2.8725   40 N    0 0 0
   9 B    1     1.6418     3.1026    2 O    0 0 0
   9 B    1     2.4597     4.6482   51 B    0 0 0
   9 B    1     2.4597     4.6482   47 B    0-1 0

  10 N    1     1.5485     2.9263   33 B    0 0 0
  10 N    1     1.5486     2.9263   35 B    0 0 0
  10 N    1     1.5486     2.9264   29 B    1-1 0
  10 N    1     1.5529     2.9346   17 B    0 0 0
  10 N    1     2.5317     4.7843   48 N    0 0 0
  10 N    1     2.5318     4.7844   52 N    0 0 0

  11 B    1     1.5496     2.9282   46 N    0 0 0
  11 B    1     1.5500     2.9290   42 N    0 0 0
  11 B    1     1.5531     2.9349    4 N    0 0 0
  11 B    1     1.5531     2.9350   40 N    0 0 0
  11 B    1     2.5302     4.7814   43 B    0 0 0
  11 B    1     2.5303     4.7815    7 B    0 0 0

  12 N    1     1.5200     2.8724   25 B    0 0 0
  12 N    1     1.5531     2.9349   13 B   -1 0 0
  12 N    1     1.5531     2.9350   31 B    0 0 0
  12 N    1     1.5572     2.9426   35 B   -1 0 0
  12 N    1     2.5283     4.7778    6 N    0-1 0
  12 N    1     2.5283     4.7779   24 N    0-1 0

  13 B    1     1.5496     2.9282   48 N    0 0 0
  13 B    1     1.5500     2.9292   54 N    0 0 0
  13 B    1     1.5531     2.9349   44 N    0 0 1
  13 B    1     1.5531     2.9349   12 N    1 0 0
  13 B    1     2.5303     4.7815   37 B    0 0 0
  13 B    1     2.5303     4.7815    5 B    0 0 0

  14 N    1     1.5201     2.8725   21 B    0 0 0
  14 N    1     1.5530     2.9348    3 B    0 0 0
  14 N    1     1.5531     2.9349   19 B    1 0-1
  14 N    1     1.5573     2.9428   33 B    0 0 0
  14 N    1     2.5283     4.7779   32 N    1 0-1
  14 N    1     2.5284     4.7779   16 N    0 0 0

  15 B    1     1.5495     2.9281   46 N    0 0 0
  15 B    1     1.5500     2.9291   50 N    0 0 0
  15 B    1     1.5531     2.9349    8 N    0 0 0
  15 B    1     1.5531     2.9349   44 N    0 0 0
  15 B    1     2.5302     4.7814    3 B    0 0 0
  15 B    1     2.5302     4.7815   39 C    0 0 0

  16 N    1     1.5200     2.8724   21 B    0 0 0
  16 N    1     1.5531     2.9349    5 B    0 0 0
  16 N    1     1.5531     2.9350   23 B    1 0 0
  16 N    1     1.5572     2.9427   35 B    0 0 0
  16 N    1     2.5283     4.7778   32 N    1 0-1
  16 N    1     2.5284     4.7779   14 N    0 0 0

  17 B    1     1.5501     2.9293   48 N    0 0 0
  17 B    1     1.5502     2.9294   52 N    0 0 0
  17 B    1     1.5502     2.9294   46 N    0 0 0
  17 B    1     1.5529     2.9346   10 N    0 0 0
  17 B    1     2.5276     4.7764   49 B    0 0 0
  17 B    1     2.5276     4.7765   41 B    0 0 0

  18 N    1     1.5500     2.9290   23 B    0 0 0
  18 N    1     1.5500     2.9291   19 B    0 0 0
  18 N    1     1.5500     2.9291   31 B    0 0 0
  18 N    1     1.5519     2.9327    1 B    0 0 0
  18 N    1     2.5326     4.7860   34 N    0 0 0
  18 N    1     2.5327     4.7860   30 N    0 0 0

  19 B    1     1.5495     2.9282   36 N    0 0 0
  19 B    1     1.5500     2.9291   18 N    0 0 0
  19 B    1     1.5531     2.9349   14 N   -1 0 1
  19 B    1     1.5531     2.9350    6 N    0 0 0
  19 B    1     2.5302     4.7814   31 B    0 0 0
  19 B    1     2.5303     4.7815   23 B    0 0 0

  20 N    1     1.5201     2.8725   27 B   -1 0 1
  20 N    1     1.5531     2.9349   43 B    0 0 0
  20 N    1     1.5531     2.9350   39 C    0-1 1
  20 N    1     1.5572     2.9427   45 B    0-1 1
  20 N    1     2.5284     4.7779    4 N   -1 0 1
  20 N    1     2.5284     4.7779    8 N   -1 0 1

  21 B    1     1.5200     2.8724   16 N    0 0 0
  21 B    1     1.5200     2.8725   32 N    1 0-1
  21 B    1     1.5201     2.8725   14 N    0 0 0
  21 B    1     1.6418     3.1026    2 O    0 1 0
  21 B    1     2.4597     4.6481   33 B    0 0 0
  21 B    1     2.4597     4.6481   35 B    0 0 0

  22 N    1     1.5485     2.9263   45 B    0 0 0
  22 N    1     1.5485     2.9263   29 B    0 0 0
  22 N    1     1.5486     2.9264   47 B    0 0 0
  22 N    1     1.5530     2.9347   41 B    0 0 0
  22 N    1     2.5317     4.7843   34 N    0 0 0
  22 N    1     2.5318     4.7844   52 N    0 0 0

  23 B    1     1.5495     2.9282   34 N    0 0 0
  23 B    1     1.5500     2.9290   18 N    0 0 0
  23 B    1     1.5531     2.9350   16 N   -1 0 0
  23 B    1     1.5531     2.9350    4 N   -1 1 0
  23 B    1     2.5303     4.7815   31 B    0 0 0
  23 B    1     2.5303     4.7815   19 B    0 0 0

  24 N    1     1.5200     2.8723   25 B    0 1 0
  24 N    1     1.5531     2.9349   37 B    0 0 0
  24 N    1     1.5531     2.9350   43 B    0 1 0
  24 N    1     1.5572     2.9427   47 B    0 0 0
  24 N    1     2.5283     4.7779   12 N    0 1 0
  24 N    1     2.5283     4.7779    6 N    0 0 0

  25 B    1     1.5200     2.8723   24 N    0-1 0
  25 B    1     1.5200     2.8724   12 N    0 0 0
  25 B    1     1.5200     2.8724    6 N    0-1 0
  25 B    1     1.6420     3.1030    2 O   -1 0 1
  25 B    1     2.4595     4.6478   47 B    0-1 0
  25 B    1     2.4596     4.6480   35 B   -1 0 0

  26 N    1     1.5485     2.9263   33 B   -1 0 1
  26 N    1     1.5486     2.9264   51 B    0 0 1
  26 N    1     1.5486     2.9264   45 B    0-1 1
  26 N    1     1.5529     2.9346   49 B    0 0 0
  26 N    1     2.5317     4.7843   48 N    0 0 0
  26 N    1     2.5318     4.7844   36 N    0 0 0

  27 B    1     1.5200     2.8724    4 N    0 0 0
  27 B    1     1.5200     2.8725    8 N    0 0 0
  27 B    1     1.5201     2.8725   20 N    1 0-1
  27 B    1     1.6418     3.1026    2 O    0 0 0
  27 B    1     2.4596     4.6479   33 B    0 0 0
  27 B    1     2.4596     4.6480   29 B    1-1 0

  28 N    1     1.5485     2.9263   51 B    0 0 0
  28 N    1     1.5485     2.9263   35 B   -1 0 0
  28 N    1     1.5486     2.9264   47 B    0-1 0
  28 N    1     1.5530     2.9347   53 B    0 0 0
  28 N    1     2.5317     4.7843   34 N    0 0 0
  28 N    1     2.5318     4.7844   46 N    0 0 0

  29 B    1     1.5485     2.9263   22 N    0 0 0
  29 B    1     1.5486     2.9264   10 N   -1 1 0
  29 B    1     1.5572     2.9427    6 N    0 0 0
  29 B    1     1.5572     2.9427    4 N   -1 1 0
  29 B    1     2.4596     4.6480   27 B   -1 1 0
  29 B    1     2.4596     4.6480   25 B    0 1 0

  30 N    1     1.5495     2.9281   31 B    0 0 0
  30 N    1     1.5496     2.9282   43 B    0 0 0
  30 N    1     1.5501     2.9293   53 B    0 0 0
  30 N    1     1.5502     2.9294   49 B    0 0 0
  30 N    1     2.5318     4.7844   26 N    0 0 0
  30 N    1     2.5318     4.7844   28 N    0 0 0

  31 B    1     1.5495     2.9281   30 N    0 0 0
  31 B    1     1.5500     2.9291   18 N    0 0 0
  31 B    1     1.5531     2.9349    8 N   -1 0 1
  31 B    1     1.5531     2.9350   12 N    0 0 0
  31 B    1     2.5302     4.7814   19 B    0 0 0
  31 B    1     2.5303     4.7815   23 B    0 0 0

  32 N    1     1.5200     2.8725   21 B   -1 0 1
  32 N    1     1.5531     2.9349   37 B    0 0 0
  32 N    1     1.5531     2.9349   39 C    0 0 1
  32 N    1     1.5572     2.9427   51 B    0 0 1
  32 N    1     2.5283     4.7778   16 N   -1 0 1
  32 N    1     2.5283     4.7779   14 N   -1 0 1

  33 B    1     1.5485     2.9263   10 N    0 0 0
  33 B    1     1.5485     2.9263   26 N    1 0-1
  33 B    1     1.5572     2.9427    8 N    0 0 0
  33 B    1     1.5573     2.9428   14 N    0 0 0
  33 B    1     2.4596     4.6479   27 B    0 0 0
  33 B    1     2.4597     4.6481   21 B    0 0 0

  34 N    1     1.5495     2.9282   23 B    0 0 0
  34 N    1     1.5495     2.9282   39 C    0 0 0
  34 N    1     1.5502     2.9294   53 B    0 0 0
  34 N    1     1.5502     2.9294   41 B    0 0 0
  34 N    1     2.5317     4.7843   28 N    0 0 0
  34 N    1     2.5317     4.7843   22 N    0 0 0

  35 B    1     1.5485     2.9263   28 N    1 0 0
  35 B    1     1.5486     2.9263   10 N    0 0 0
  35 B    1     1.5572     2.9426   12 N    1 0 0
  35 B    1     1.5572     2.9427   16 N    0 0 0
  35 B    1     2.4596     4.6480   25 B    1 0 0
  35 B    1     2.4597     4.6481   21 B    0 0 0

  36 N    1     1.5495     2.9282   19 B    0 0 0
  36 N    1     1.5496     2.9282   37 B    0 0 0
  36 N    1     1.5501     2.9293   41 B    0 0 0
  36 N    1     1.5502     2.9294   49 B    0 0 0
  36 N    1     2.5318     4.7844   26 N    0 0 0
  36 N    1     2.5318     4.7844   22 N    0 0 0

  37 B    1     1.5496     2.9282   36 N    0 0 0
  37 B    1     1.5500     2.9291   54 N    0 0 0
  37 B    1     1.5531     2.9349   32 N    0 0 0
  37 B    1     1.5531     2.9349   24 N    0 0 0
  37 B    1     2.5302     4.7814    5 B    0 0 0
  37 B    1     2.5303     4.7815   13 B    0 0 0

  38 N    1     1.5200     2.8724    9 B    0 1 0
  38 N    1     1.5531     2.9348    7 B    0 1-1
  38 N    1     1.5531     2.9349    3 B    0 0 0
  38 N    1     1.5572     2.9428   45 B    0 0 0
  38 N    1     2.5283     4.7778   44 N    0 1 0
  38 N    1     2.5283     4.7779   40 N    0 1 0

  39 C    1     1.5495     2.9282   34 N    0 0 0
  39 C    1     1.5500     2.9291   50 N    0 0 0
  39 C    1     1.5531     2.9349   32 N    0 0-1
  39 C    1     1.5531     2.9350   20 N    0 1-1
  39 C    1     2.5302     4.7815   15 B    0 0 0
  39 C    1     2.5303     4.7815    3 B    0 0 0

  40 N    1     1.5201     2.8725    9 B    0 0 0
  40 N    1     1.5531     2.9350   11 B    0 0 0
  40 N    1     1.5531     2.9350    5 B    0-1 0
  40 N    1     1.5571     2.9426   47 B    0-1 0
  40 N    1     2.5283     4.7779   38 N    0-1 0
  40 N    1     2.5283     4.7779   44 N    0 0 0

  41 B    1     1.5501     2.9293   52 N    0 0 0
  41 B    1     1.5501     2.9293   36 N    0 0 0
  41 B    1     1.5502     2.9294   34 N    0 0 0
  41 B    1     1.5530     2.9347   22 N    0 0 0
  41 B    1     2.5276     4.7764   53 B    0 0 0
  41 B    1     2.5276     4.7765   17 B    0 0 0

  42 N    1     1.5500     2.9290   11 B    0 0 0
  42 N    1     1.5500     2.9290   43 B    0 0 0
  42 N    1     1.5500     2.9291    7 B    0 0 0
  42 N    1     1.5519     2.9328    1 B    1-1 0
  42 N    1     2.5326     4.7860   48 N    0 0 0
  42 N    1     2.5327     4.7860   30 N    0 0 0

  43 B    1     1.5496     2.9282   30 N    0 0 0
  43 B    1     1.5500     2.9290   42 N    0 0 0
  43 B    1     1.5531     2.9349   20 N    0 0 0
  43 B    1     1.5531     2.9350   24 N    0-1 0
  43 B    1     2.5302     4.7814   11 B    0 0 0
  43 B    1     2.5303     4.7815    7 B    0 0 0

  44 N    1     1.5200     2.8724    9 B    0 0 0
  44 N    1     1.5531     2.9349   13 B    0 0-1
  44 N    1     1.5531     2.9349   15 B    0 0 0
  44 N    1     1.5572     2.9427   51 B    0 0 0
  44 N    1     2.5283     4.7778   38 N    0-1 0
  44 N    1     2.5283     4.7779   40 N    0 0 0

  45 B    1     1.5485     2.9263   22 N    0 0 0
  45 B    1     1.5486     2.9264   26 N    0 1-1
  45 B    1     1.5572     2.9427   20 N    0 1-1
  45 B    1     1.5572     2.9428   38 N    0 0 0
  45 B    1     2.4597     4.6481   27 B   -1 1 0
  45 B    1     2.4597     4.6482    9 B    0 1 0

  46 N    1     1.5495     2.9281   15 B    0 0 0
  46 N    1     1.5496     2.9282   11 B    0 0 0
  46 N    1     1.5501     2.9293   53 B    0 0 0
  46 N    1     1.5502     2.9294   17 B    0 0 0
  46 N    1     2.5318     4.7844   28 N    0 0 0
  46 N    1     2.5318     4.7844   10 N    0 0 0

  47 B    1     1.5486     2.9264   22 N    0 0 0
  47 B    1     1.5486     2.9264   28 N    0 1 0
  47 B    1     1.5571     2.9426   40 N    0 1 0
  47 B    1     1.5572     2.9427   24 N    0 0 0
  47 B    1     2.4595     4.6478   25 B    0 1 0
  47 B    1     2.4597     4.6482    9 B    0 1 0

  48 N    1     1.5496     2.9282   13 B    0 0 0
  48 N    1     1.5496     2.9283    7 B    0 0 0
  48 N    1     1.5501     2.9293   17 B    0 0 0
  48 N    1     1.5501     2.9293   49 B    0 0 0
  48 N    1     2.5317     4.7843   10 N    0 0 0
  48 N    1     2.5317     4.7843   26 N    0 0 0

  49 B    1     1.5501     2.9293   48 N    0 0 0
  49 B    1     1.5502     2.9294   36 N    0 0 0
  49 B    1     1.5502     2.9294   30 N    0 0 0
  49 B    1     1.5529     2.9346   26 N    0 0 0
  49 B    1     2.5276     4.7764   17 B    0 0 0
  49 B    1     2.5276     4.7765   53 B    0 0 0

  50 N    1     1.5500     2.9291   39 C    0 0 0
  50 N    1     1.5500     2.9291   15 B    0 0 0
  50 N    1     1.5500     2.9291    3 B    0 0 0
  50 N    1     1.5519     2.9327    1 B    1 0-1
  50 N    1     2.5326     4.7860   34 N    0 0 0
  50 N    1     2.5327     4.7860   52 N    0 0 0

  51 B    1     1.5485     2.9263   28 N    0 0 0
  51 B    1     1.5486     2.9264   26 N    0 0-1
  51 B    1     1.5572     2.9427   32 N    0 0-1
  51 B    1     1.5572     2.9427   44 N    0 0 0
  51 B    1     2.4597     4.6482    9 B    0 0 0
  51 B    1     2.4597     4.6482   21 B   -1 0 0

  52 N    1     1.5495     2.9282    3 B    0 0 0
  52 N    1     1.5496     2.9282    5 B    0 0 0
  52 N    1     1.5501     2.9293   41 B    0 0 0
  52 N    1     1.5502     2.9294   17 B    0 0 0
  52 N    1     2.5318     4.7844   22 N    0 0 0
  52 N    1     2.5318     4.7844   10 N    0 0 0

  53 B    1     1.5501     2.9293   30 N    0 0 0
  53 B    1     1.5501     2.9293   46 N    0 0 0
  53 B    1     1.5502     2.9294   34 N    0 0 0
  53 B    1     1.5530     2.9347   28 N    0 0 0
  53 B    1     2.5276     4.7764   41 B    0 0 0
  53 B    1     2.5276     4.7765   17 B    0 0 0

  54 N    1     1.5500     2.9291    5 B    0 0 0
  54 N    1     1.5500     2.9291   37 B    0 0 0
  54 N    1     1.5500     2.9292   13 B    0 0 0
  54 N    1     1.5520     2.9328    1 B    1 0 0
  54 N    1     2.5326     4.7860   48 N    0 0 0
  54 N    1     2.5327     4.7861   36 N    0 0 0


 SYMMETRY ALLOWED INTERNAL DEGREE(S) OF FREEDOM: 159
 TTTTTTTTTTTTTTTTTTTTTTTTTTTTTT SYMM        TELAPSE        1.11 TCPU        0.86
 TTTTTTTTTTTTTTTTTTTTTTTTTTTTTT INT_SCREEN  TELAPSE        1.14 TCPU        0.89

 DFT PARAMETERS

     ATOM       ELECTRONS   NET CHARGE   R(ANGSTROM)
   1   5  B       5.0000      0.0000     0.89000000
   2   8  O       8.0000      0.0000     0.74000000
   4   7  N       7.0000      0.0000     0.74000000
  39   6  C       6.0000      0.0000     0.77000000

 SIZE OF GRID=    1302139
 TTTTTTTTTTTTTTTTTTTTTTTTTTTTTT MAKE_GRID2  TELAPSE        6.04 TCPU        5.79
 BECKE WEIGHT FUNCTION
 RADSAFE =     2.00
 TOLERANCES - DENSITY:10**- 6; POTENTIAL:10**- 9; GRID WGT:10**-14

 RADIAL INTEGRATION  - INTERVALS (POINTS,UPPER LIMIT):            1( 75,  4.0*R)

 ANGULAR INTEGRATION - INTERVALS (ACCURACY LEVEL [N. POINTS] UPPER LIMIT):
  1(  4[  86]   0.2)  2(  8[ 194]   0.5)  3( 12[ 350]   0.9)  4( 16[ 974]   3.5)
  5( 12[ 350]9999.0)
 TTTTTTTTTTTTTTTTTTTTTTTTTTTTTT INT_CALC    TELAPSE        6.10 TCPU        5.85
 EEEEEEEEEE INT_CALC TERMINATION  DATE 23 03 2023 TIME 09:10:29.6

 *******************************************************************************
 substitutionscBN_O_N_117                                                        
 CRYSTAL - SCF - TYPE OF CALCULATION :  UNRESTRICTED OPEN SHELL
 *******************************************************************************

 CAPPA:IS1  6;IS2  6;IS3  6; K PTS MONK NET 112; SYMMOPS:K SPACE   2;G SPACE   1

 TTTTTTTTTTTTTTTTTTTTTTTTTTTTTT SDIK        TELAPSE       14.28 TCPU       14.02

 AAAAAAAAAAAAAAAAAAAAAAAAAAAAAAAAAAAAAAAAAAAAAAAAAAAAAAAAAAAAAAAAAAAAAAAAAAAAAAA
         ATOMIC WAVEFUNCTION(S)


 NUCLEAR CHARGE  5.0  SYMMETRY SPECIES            S    P
 N. ELECTRONS    5.0  NUMBER OF PRIMITIVE GTOS    7    4
                      NUMBER OF CONTRACTED GTOS   3    2
                      NUMBER OF CLOSED SHELLS     2    0
                      OPEN SHELL OCCUPATION       0    1

  ZNUC SCFIT  TOTAL HF ENERGY   KINETIC ENERGY   VIRIAL THEOREM ACCURACY
   5.0   7   -2.443453004E+01  2.471954539E+01 -1.988470041E+00  3.9E-06

 NUCLEAR CHARGE  8.0  SYMMETRY SPECIES            S    P
 N. ELECTRONS    8.0  NUMBER OF PRIMITIVE GTOS    7    4
                      NUMBER OF CONTRACTED GTOS   3    2
                      NUMBER OF CLOSED SHELLS     2    0
                      OPEN SHELL OCCUPATION       0    4

  ZNUC SCFIT  TOTAL HF ENERGY   KINETIC ENERGY   VIRIAL THEOREM ACCURACY
   8.0  13   -7.471200414E+01  7.474432650E+01 -1.999567561E+00  2.0E-06

 NUCLEAR CHARGE  7.0  SYMMETRY SPECIES            S    P
 N. ELECTRONS    7.0  NUMBER OF PRIMITIVE GTOS    7    4
                      NUMBER OF CONTRACTED GTOS   3    2
                      NUMBER OF CLOSED SHELLS     2    0
                      OPEN SHELL OCCUPATION       0    3

  ZNUC SCFIT  TOTAL HF ENERGY   KINETIC ENERGY   VIRIAL THEOREM ACCURACY
   7.0   9   -5.433012196E+01  5.433288047E+01 -1.999949230E+00  2.1E-06

 NUCLEAR CHARGE  6.0  SYMMETRY SPECIES            S    P
 N. ELECTRONS    6.0  NUMBER OF PRIMITIVE GTOS    7    4
                      NUMBER OF CONTRACTED GTOS   3    2
                      NUMBER OF CLOSED SHELLS     2    0
                      OPEN SHELL OCCUPATION       0    2

  ZNUC SCFIT  TOTAL HF ENERGY   KINETIC ENERGY   VIRIAL THEOREM ACCURACY
   6.0   9   -3.761483716E+01  3.761967630E+01 -1.999871367E+00  1.6E-06

 AAAAAAAAAAAAAAAAAAAAAAAAAAAAAAAAAAAAAAAAAAAAAAAAAAAAAAAAAAAAAAAAAAAAAAAAAAAAAAA

 CHARGE NORMALIZATION FACTOR   1.00000000
 TOTAL ATOMIC CHARGES:
   5.0000000   8.0000000   5.0000000   7.0000000   5.0000000   7.0000000
   5.0000000   7.0000000   5.0000000   7.0000000   5.0000000   7.0000000
   5.0000000   7.0000000   5.0000000   7.0000000   5.0000000   7.0000000
   5.0000000   7.0000000   5.0000000   7.0000000   5.0000000   7.0000000
   5.0000000   7.0000000   5.0000000   7.0000000   5.0000000   7.0000000
   5.0000000   7.0000000   5.0000000   7.0000000   5.0000000   7.0000000
   5.0000000   7.0000000   6.0000000   7.0000000   5.0000000   7.0000000
   5.0000000   7.0000000   5.0000000   7.0000000   5.0000000   7.0000000
   5.0000000   7.0000000   5.0000000   7.0000000   5.0000000   7.0000000
 SUMMED SPIN DENSITY           0.00000000
 TOTAL ATOMIC SPINS  :
   0.0000000   0.0000000   0.0000000   0.0000000   0.0000000   0.0000000
   0.0000000   0.0000000   0.0000000   0.0000000   0.0000000   0.0000000
   0.0000000   0.0000000   0.0000000   0.0000000   0.0000000   0.0000000
   0.0000000   0.0000000   0.0000000   0.0000000   0.0000000   0.0000000
   0.0000000   0.0000000   0.0000000   0.0000000   0.0000000   0.0000000
   0.0000000   0.0000000   0.0000000   0.0000000   0.0000000   0.0000000
   0.0000000   0.0000000   0.0000000   0.0000000   0.0000000   0.0000000
   0.0000000   0.0000000   0.0000000   0.0000000   0.0000000   0.0000000
   0.0000000   0.0000000   0.0000000   0.0000000   0.0000000   0.0000000
 TTTTTTTTTTTTTTTTTTTTTTTTTTTTTT MOQGAD      TELAPSE       16.11 TCPU       15.85
 TTTTTTTTTTTTTTTTTTTTTTTTTTTTTT SHELLXN     TELAPSE     2613.54 TCPU     2612.80
 TTTTTTTTTTTTTTTTTTTTTTTTTTTTTT MONMO3      TELAPSE     2718.27 TCPU     2717.53
 NUMERICALLY INTEGRATED DENSITY    163.0003103051    163.0003103051
 TTTTTTTTTTTTTTTTTTTTTTTTTTTTTT NUMDFT      TELAPSE     2733.81 TCPU     2733.05
 CYC   0 ETOT(AU) -2.195123330146E+03 DETOT -2.20E+03 tst  0.00E+00 PX  1.00E+00
 TTTTTTTTTTTTTTTTTTTTTTTTTTTTTT DIIS        TELAPSE     2736.45 TCPU     2733.47
 TTTTTTTTTTTTTTTTTTTTTTTTTTTTTT FDIK        TELAPSE     2977.43 TCPU     2973.78

    ALPHA      ELECTRONS
 INSULATING STATE
 TOP OF VALENCE BANDS -    BAND    163; K   17; EIG  2.2299807E-02 AU
 TOP OF VALENCE BANDS -    BAND    163; K    1; EIG  6.5576624E-03 AU
 BOTTOM OF VIRTUAL BANDS - BAND    164; K   86; EIG  2.4844589E-02 AU
 INDIRECT ENERGY BAND GAP:   0.0692 eV
 BOTTOM OF VIRTUAL BANDS - BAND    164; K    1; EIG  2.8120915E-02 AU

    BETA       ELECTRONS
 INSULATING STATE
 TOP OF VALENCE BANDS -    BAND    163; K   17; EIG  2.2299807E-02 AU
 TOP OF VALENCE BANDS -    BAND    163; K    1; EIG  6.5576624E-03 AU
 BOTTOM OF VIRTUAL BANDS - BAND    164; K   86; EIG  2.4844589E-02 AU
 INDIRECT ENERGY BAND GAP:   0.0692 eV
 BOTTOM OF VIRTUAL BANDS - BAND    164; K    1; EIG  2.8120915E-02 AU
 TTTTTTTTTTTTTTTTTTTTTTTTTTTTTT PDIG        TELAPSE     2981.78 TCPU     2977.75
 CHARGE NORMALIZATION FACTOR   1.00000000
 TOTAL ATOMIC CHARGES:
   4.6038622   8.6776428   4.6055434   7.4382240   4.5972177   7.4410388
   4.5995455   7.4388389   4.4801346   7.4510770   4.5972277   7.4410035
   4.5995419   7.4388504   4.6055485   7.4382078   4.5885525   7.4483348
   4.5983704   7.3180174   4.4926263   7.4478689   4.6051115   7.4377987
   4.4774287   7.4490654   4.4926198   7.4479244   4.5848646   7.4515602
   4.5983737   7.3179980   4.5845783   7.3304382   4.5848545   7.4515686
   4.6022798   7.4383233   5.2018836   7.4410546   4.5928743   7.4473558
   4.6022854   7.4383014   4.5908428   7.4512879   4.5802998   7.4545049
   4.5880120   7.3268231   4.5908267   7.4512864   4.5928698   7.4474290
 SUMMED SPIN DENSITY          -0.00000000
 TOTAL ATOMIC SPINS  :
  -0.0000000   0.0000000  -0.0000000  -0.0000000  -0.0000000  -0.0000000
  -0.0000000   0.0000000  -0.0000000  -0.0000000   0.0000000  -0.0000000
   0.0000000   0.0000000  -0.0000000   0.0000000   0.0000000   0.0000000
  -0.0000000   0.0000000  -0.0000000   0.0000000   0.0000000  -0.0000000
   0.0000000   0.0000000  -0.0000000  -0.0000000   0.0000000  -0.0000000
   0.0000000   0.0000000   0.0000000   0.0000000  -0.0000000   0.0000000
  -0.0000000   0.0000000  -0.0000000   0.0000000  -0.0000000   0.0000000
   0.0000000   0.0000000  -0.0000000  -0.0000000   0.0000000   0.0000000
  -0.0000000   0.0000000  -0.0000000  -0.0000000   0.0000000   0.0000000
 TTTTTTTTTTTTTTTTTTTTTTTTTTTTTT MOQGAD      TELAPSE     2981.87 TCPU     2977.84
 TTTTTTTTTTTTTTTTTTTTTTTTTTTTTT SHELLXN     TELAPSE     5671.21 TCPU     5666.82
 TTTTTTTTTTTTTTTTTTTTTTTTTTTTTT MONMO3      TELAPSE     5779.47 TCPU     5775.06
 NUMERICALLY INTEGRATED DENSITY    163.0001771079    163.0001771079
 TTTTTTTTTTTTTTTTTTTTTTTTTTTTTT NUMDFT      TELAPSE     5828.14 TCPU     5823.73
 CYC   1 ETOT(AU) -2.181480034674E+03 DETOT  1.36E+01 tst  0.00E+00 PX  1.00E+00
 TTTTTTTTTTTTTTTTTTTTTTTTTTTTTT DIIS        TELAPSE     5829.58 TCPU     5824.73
 DIIS TEST: 0.43178E+01 AT SCF   CYCLE   1 - MIX   30 %
 TTTTTTTTTTTTTTTTTTTTTTTTTTTTTT FDIK        TELAPSE     5893.22 TCPU     5888.16

    ALPHA      ELECTRONS
 INSULATING STATE
 TOP OF VALENCE BANDS -    BAND    163; K   17; EIG  8.0572362E-02 AU
 TOP OF VALENCE BANDS -    BAND    163; K    1; EIG  5.9713307E-02 AU
 BOTTOM OF VIRTUAL BANDS - BAND    164; K    1; EIG  8.1042764E-02 AU
 INDIRECT ENERGY BAND GAP:   0.0128 eV

    BETA       ELECTRONS
 INSULATING STATE
 TOP OF VALENCE BANDS -    BAND    163; K   17; EIG  8.0572362E-02 AU
 TOP OF VALENCE BANDS -    BAND    163; K    1; EIG  5.9713307E-02 AU
 BOTTOM OF VIRTUAL BANDS - BAND    164; K    1; EIG  8.1042764E-02 AU
 INDIRECT ENERGY BAND GAP:   0.0128 eV
 TTTTTTTTTTTTTTTTTTTTTTTTTTTTTT PDIG        TELAPSE     5897.40 TCPU     5892.29
 CHARGE NORMALIZATION FACTOR   1.00000000
 TOTAL ATOMIC CHARGES:
   4.8465407   8.5716042   4.8641635   7.1267569   4.7942467   7.1192893
   4.8301943   7.1245728   4.7281277   7.1254046   4.7941869   7.1192999
   4.8303533   7.1246444   4.8643305   7.1267198   4.8200064   7.1220662
   4.8458139   7.2093406   4.8256653   7.1377721   4.8626252   7.1316323
   4.7529923   7.1327084   4.8255587   7.1378389   4.8133254   7.1361883
   4.8458808   7.2093392   4.8305941   7.2276141   4.8133706   7.1364167
   4.8597700   7.1326783   6.2034910   7.1329965   4.8448104   7.1293445
   4.8598566   7.1326925   4.8485619   7.1423467   4.7715817   7.1302057
   4.8345639   7.2049207   4.8483698   7.1425389   4.8448047   7.1292813
 SUMMED SPIN DENSITY          -0.00000000
 TOTAL ATOMIC SPINS  :
   0.0000000   0.0000000  -0.0000000  -0.0000000  -0.0000000  -0.0000000
  -0.0000000  -0.0000000  -0.0000000  -0.0000000   0.0000000  -0.0000000
   0.0000000   0.0000000  -0.0000000   0.0000000   0.0000000  -0.0000000
  -0.0000000  -0.0000000  -0.0000000  -0.0000000   0.0000000  -0.0000000
   0.0000000   0.0000000  -0.0000000  -0.0000000   0.0000000   0.0000000
   0.0000000   0.0000000   0.0000000   0.0000000  -0.0000000  -0.0000000
  -0.0000000   0.0000000  -0.0000000   0.0000000  -0.0000000  -0.0000000
   0.0000000  -0.0000000  -0.0000000  -0.0000000   0.0000000  -0.0000000
   0.0000000   0.0000000   0.0000000  -0.0000000   0.0000000   0.0000000
 TTTTTTTTTTTTTTTTTTTTTTTTTTTTTT MOQGAD      TELAPSE     5897.49 TCPU     5892.38
 TTTTTTTTTTTTTTTTTTTTTTTTTTTTTT SHELLXN     TELAPSE     8589.18 TCPU     8583.86
 TTTTTTTTTTTTTTTTTTTTTTTTTTTTTT MONMO3      TELAPSE     8696.43 TCPU     8691.10
 NUMERICALLY INTEGRATED DENSITY    163.0001897175    163.0001897175
 TTTTTTTTTTTTTTTTTTTTTTTTTTTTTT NUMDFT      TELAPSE     8744.98 TCPU     8739.65
 CYC   2 ETOT(AU) -2.181720697758E+03 DETOT -2.41E-01 tst  4.21E-03 PX  2.68E-01
 TTTTTTTTTTTTTTTTTTTTTTTTTTTTTT DIIS        TELAPSE     8745.98 TCPU     8740.15
 DIIS TEST: 0.30084E+01 AT SCF   CYCLE   2 - DIIS ACTIVE - HISTORY:     2 CYCLES
 TTTTTTTTTTTTTTTTTTTTTTTTTTTTTT FDIK        TELAPSE     8798.16 TCPU     8792.25

    ALPHA      ELECTRONS
 INSULATING STATE
 TOP OF VALENCE BANDS -    BAND    163; K    4; EIG  1.2169040E-01 AU
 TOP OF VALENCE BANDS -    BAND    163; K    1; EIG  1.0191473E-01 AU
 BOTTOM OF VIRTUAL BANDS - BAND    164; K   86; EIG  1.3440450E-01 AU
 INDIRECT ENERGY BAND GAP:   0.3460 eV
 BOTTOM OF VIRTUAL BANDS - BAND    164; K    1; EIG  1.4047337E-01 AU

    BETA       ELECTRONS
 INSULATING STATE
 TOP OF VALENCE BANDS -    BAND    163; K    4; EIG  1.2169040E-01 AU
 TOP OF VALENCE BANDS -    BAND    163; K    1; EIG  1.0191473E-01 AU
 BOTTOM OF VIRTUAL BANDS - BAND    164; K   86; EIG  1.3440450E-01 AU
 INDIRECT ENERGY BAND GAP:   0.3460 eV
 BOTTOM OF VIRTUAL BANDS - BAND    164; K    1; EIG  1.4047337E-01 AU
 TTTTTTTTTTTTTTTTTTTTTTTTTTTTTT PDIG        TELAPSE     8802.38 TCPU     8796.11
 CHARGE NORMALIZATION FACTOR   1.00000000
 TOTAL ATOMIC CHARGES:
   4.7449235   8.6327181   4.7529501   7.2423208   4.8087035   7.2680167
   4.7729473   7.2757254   4.7643384   7.2764169   4.8086671   7.2680823
   4.7730349   7.2757342   4.7527768   7.2423726   4.7591476   7.3084520
   4.7524860   7.1419185   4.6806147   7.2547031   4.7542817   7.2445525
   4.7347840   7.2866623   4.6805492   7.2548454   4.7689820   7.3014137
   4.7526164   7.1418645   4.7367655   7.1644880   4.7690111   7.3016419
   4.7481287   7.2394401   5.2735909   7.2506711   4.7458570   7.2665226
   4.7483169   7.2395071   4.7464756   7.2604004   4.8116593   7.2841324
   4.7378883   7.1786644   4.7463333   7.2604491   4.7458696   7.2665845
 SUMMED SPIN DENSITY          -0.00000000
 TOTAL ATOMIC SPINS  :
  -0.0000000   0.0000000  -0.0000000  -0.0000000  -0.0000000  -0.0000000
  -0.0000000  -0.0000000  -0.0000000  -0.0000000  -0.0000000  -0.0000000
   0.0000000   0.0000000  -0.0000000  -0.0000000   0.0000000  -0.0000000
  -0.0000000  -0.0000000  -0.0000000  -0.0000000   0.0000000  -0.0000000
   0.0000000  -0.0000000  -0.0000000  -0.0000000   0.0000000  -0.0000000
   0.0000000   0.0000000   0.0000000  -0.0000000  -0.0000000   0.0000000
  -0.0000000   0.0000000  -0.0000000   0.0000000  -0.0000000  -0.0000000
   0.0000000  -0.0000000  -0.0000000   0.0000000   0.0000000  -0.0000000
   0.0000000   0.0000000   0.0000000  -0.0000000   0.0000000   0.0000000
 TTTTTTTTTTTTTTTTTTTTTTTTTTTTTT MOQGAD      TELAPSE     8802.48 TCPU     8796.20
 TTTTTTTTTTTTTTTTTTTTTTTTTTTTTT SHELLXN     TELAPSE    11492.45 TCPU    11485.85
 TTTTTTTTTTTTTTTTTTTTTTTTTTTTTT MONMO3      TELAPSE    11596.98 TCPU    11590.36
 NUMERICALLY INTEGRATED DENSITY    163.0001879206    163.0001879206
 TTTTTTTTTTTTTTTTTTTTTTTTTTTTTT NUMDFT      TELAPSE    11645.97 TCPU    11639.35
 CYC   3 ETOT(AU) -2.181897683729E+03 DETOT -1.77E-01 tst  4.50E-02 PX  2.26E-01
 TTTTTTTTTTTTTTTTTTTTTTTTTTTTTT DIIS        TELAPSE    11647.00 TCPU    11640.02
 DIIS TEST: 0.12745E+01 AT SCF   CYCLE   3 - DIIS ACTIVE - HISTORY:     3 CYCLES
 TTTTTTTTTTTTTTTTTTTTTTTTTTTTTT FDIK        TELAPSE    11703.43 TCPU    11696.29

    ALPHA      ELECTRONS
 INSULATING STATE
 TOP OF VALENCE BANDS -    BAND    163; K   17; EIG  1.1719767E-01 AU
 TOP OF VALENCE BANDS -    BAND    163; K    1; EIG  9.7902125E-02 AU
 BOTTOM OF VIRTUAL BANDS - BAND    164; K   44; EIG  1.2738732E-01 AU
 INDIRECT ENERGY BAND GAP:   0.2773 eV
 BOTTOM OF VIRTUAL BANDS - BAND    164; K    1; EIG  1.3024798E-01 AU

    BETA       ELECTRONS
 INSULATING STATE
 TOP OF VALENCE BANDS -    BAND    163; K   17; EIG  1.1719767E-01 AU
 TOP OF VALENCE BANDS -    BAND    163; K    1; EIG  9.7902125E-02 AU
 BOTTOM OF VIRTUAL BANDS - BAND    164; K   44; EIG  1.2738732E-01 AU
 INDIRECT ENERGY BAND GAP:   0.2773 eV
 BOTTOM OF VIRTUAL BANDS - BAND    164; K    1; EIG  1.3024798E-01 AU
 TTTTTTTTTTTTTTTTTTTTTTTTTTTTTT PDIG        TELAPSE    11707.55 TCPU    11700.30
 CHARGE NORMALIZATION FACTOR   1.00000000
 TOTAL ATOMIC CHARGES:
   4.7232009   8.6466641   4.7303662   7.2817461   4.7123176   7.2759775
   4.7156909   7.2842134   4.6327891   7.2910773   4.7123882   7.2760155
   4.7156800   7.2842274   4.7304161   7.2816380   4.7062229   7.3020017
   4.7193418   7.2461620   4.6639893   7.2927636   4.7315210   7.2811464
   4.6304181   7.2967357   4.6638303   7.2928720   4.7081537   7.3041392
   4.7194225   7.2460843   4.7135883   7.2647721   4.7082666   7.3042287
   4.7290982   7.2796045   5.5581064   7.2799768   4.7172446   7.2995100
   4.7291408   7.2796497   4.7242457   7.3009395   4.6995133   7.2969554
   4.7104190   7.2637679   4.7241881   7.3009322   4.7171082   7.2995309
 SUMMED SPIN DENSITY          -0.00000000
 TOTAL ATOMIC SPINS  :
  -0.0000000   0.0000000  -0.0000000   0.0000000  -0.0000000   0.0000000
  -0.0000000   0.0000000  -0.0000000  -0.0000000  -0.0000000  -0.0000000
   0.0000000   0.0000000  -0.0000000   0.0000000   0.0000000   0.0000000
  -0.0000000   0.0000000  -0.0000000  -0.0000000  -0.0000000  -0.0000000
   0.0000000  -0.0000000  -0.0000000  -0.0000000   0.0000000  -0.0000000
  -0.0000000   0.0000000   0.0000000  -0.0000000   0.0000000   0.0000000
  -0.0000000   0.0000000   0.0000000   0.0000000   0.0000000   0.0000000
   0.0000000  -0.0000000  -0.0000000   0.0000000   0.0000000   0.0000000
   0.0000000   0.0000000   0.0000000  -0.0000000   0.0000000   0.0000000
 TTTTTTTTTTTTTTTTTTTTTTTTTTTTTT MOQGAD      TELAPSE    11707.65 TCPU    11700.39
 TTTTTTTTTTTTTTTTTTTTTTTTTTTTTT SHELLXN     TELAPSE    14394.39 TCPU    14386.95
 TTTTTTTTTTTTTTTTTTTTTTTTTTTTTT MONMO3      TELAPSE    14499.61 TCPU    14492.16
 NUMERICALLY INTEGRATED DENSITY    163.0001858608    163.0001858608
 TTTTTTTTTTTTTTTTTTTTTTTTTTTTTT NUMDFT      TELAPSE    14548.03 TCPU    14540.57
 CYC   4 ETOT(AU) -2.181987588446E+03 DETOT -8.99E-02 tst  9.88E-04 PX  8.56E-02
 TTTTTTTTTTTTTTTTTTTTTTTTTTTTTT DIIS        TELAPSE    14548.93 TCPU    14541.47
 DIIS TEST: 0.11084E-01 AT SCF   CYCLE   4 - DIIS ACTIVE - HISTORY:     4 CYCLES
 TTTTTTTTTTTTTTTTTTTTTTTTTTTTTT FDIK        TELAPSE    14604.47 TCPU    14596.78

    ALPHA      ELECTRONS
 INSULATING STATE
 TOP OF VALENCE BANDS -    BAND    163; K   17; EIG  1.1359432E-01 AU
 TOP OF VALENCE BANDS -    BAND    163; K    1; EIG  9.4042971E-02 AU
 BOTTOM OF VIRTUAL BANDS - BAND    164; K   22; EIG  1.2481116E-01 AU
 INDIRECT ENERGY BAND GAP:   0.3052 eV
 BOTTOM OF VIRTUAL BANDS - BAND    164; K    1; EIG  1.2778886E-01 AU

    BETA       ELECTRONS
 INSULATING STATE
 TOP OF VALENCE BANDS -    BAND    163; K   17; EIG  1.1359432E-01 AU
 TOP OF VALENCE BANDS -    BAND    163; K    1; EIG  9.4042971E-02 AU
 BOTTOM OF VIRTUAL BANDS - BAND    164; K   22; EIG  1.2481116E-01 AU
 INDIRECT ENERGY BAND GAP:   0.3052 eV
 BOTTOM OF VIRTUAL BANDS - BAND    164; K    1; EIG  1.2778886E-01 AU
 TTTTTTTTTTTTTTTTTTTTTTTTTTTTTT PDIG        TELAPSE    14608.59 TCPU    14600.81
 CHARGE NORMALIZATION FACTOR   1.00000000
 TOTAL ATOMIC CHARGES:
   4.7165761   8.6582609   4.7255457   7.2732015   4.7150279   7.2896763
   4.7202494   7.2872003   4.6563518   7.2953538   4.7150362   7.2896326
   4.7202519   7.2871900   4.7255732   7.2731805   4.7023259   7.2983831
   4.7180894   7.2432618   4.6675209   7.2890399   4.7260644   7.2802476
   4.6598814   7.2983845   4.6675546   7.2890872   4.7071344   7.3070639
   4.7181105   7.2432414   4.6980662   7.2611658   4.7071239   7.3070686
   4.7237853   7.2786212   5.6222339   7.2834268   4.7083339   7.2833990
   4.7237995   7.2786025   4.7119789   7.2924684   4.7037693   7.3032266
   4.6993282   7.2537072   4.7119467   7.2924543   4.7083465   7.2834483
 SUMMED SPIN DENSITY          -0.00000000
 TOTAL ATOMIC SPINS  :
  -0.0000000   0.0000000  -0.0000000  -0.0000000  -0.0000000  -0.0000000
  -0.0000000   0.0000000  -0.0000000   0.0000000  -0.0000000  -0.0000000
   0.0000000  -0.0000000   0.0000000   0.0000000  -0.0000000   0.0000000
  -0.0000000  -0.0000000   0.0000000  -0.0000000  -0.0000000   0.0000000
  -0.0000000   0.0000000   0.0000000   0.0000000   0.0000000   0.0000000
   0.0000000   0.0000000  -0.0000000   0.0000000   0.0000000   0.0000000
  -0.0000000   0.0000000  -0.0000000   0.0000000  -0.0000000   0.0000000
  -0.0000000  -0.0000000   0.0000000   0.0000000   0.0000000  -0.0000000
  -0.0000000   0.0000000   0.0000000   0.0000000  -0.0000000   0.0000000
 TTTTTTTTTTTTTTTTTTTTTTTTTTTTTT MOQGAD      TELAPSE    14608.69 TCPU    14600.91
 TTTTTTTTTTTTTTTTTTTTTTTTTTTTTT SHELLXN     TELAPSE    17298.06 TCPU    17289.93
 TTTTTTTTTTTTTTTTTTTTTTTTTTTTTT MONMO3      TELAPSE    17403.76 TCPU    17395.63
 NUMERICALLY INTEGRATED DENSITY    163.0001852592    163.0001852592
 TTTTTTTTTTTTTTTTTTTTTTTTTTTTTT NUMDFT      TELAPSE    17452.26 TCPU    17444.12
 CYC   5 ETOT(AU) -2.181987456991E+03 DETOT  1.31E-04 tst  3.49E-05 PX  1.61E-02
 TTTTTTTTTTTTTTTTTTTTTTTTTTTTTT DIIS        TELAPSE    17453.33 TCPU    17444.87
 DIIS TEST: 0.15898E-01 AT SCF   CYCLE   5 - DIIS ACTIVE - HISTORY:     5 CYCLES
 TTTTTTTTTTTTTTTTTTTTTTTTTTTTTT FDIK        TELAPSE    17499.20 TCPU    17490.63

    ALPHA      ELECTRONS
 INSULATING STATE
 TOP OF VALENCE BANDS -    BAND    163; K   17; EIG  1.1451014E-01 AU
 TOP OF VALENCE BANDS -    BAND    163; K    1; EIG  9.5096280E-02 AU
 BOTTOM OF VIRTUAL BANDS - BAND    164; K   22; EIG  1.2524715E-01 AU
 INDIRECT ENERGY BAND GAP:   0.2922 eV
 BOTTOM OF VIRTUAL BANDS - BAND    164; K    1; EIG  1.2797034E-01 AU

    BETA       ELECTRONS
 INSULATING STATE
 TOP OF VALENCE BANDS -    BAND    163; K   17; EIG  1.1451014E-01 AU
 TOP OF VALENCE BANDS -    BAND    163; K    1; EIG  9.5096280E-02 AU
 BOTTOM OF VIRTUAL BANDS - BAND    164; K   22; EIG  1.2524715E-01 AU
 INDIRECT ENERGY BAND GAP:   0.2922 eV
 BOTTOM OF VIRTUAL BANDS - BAND    164; K    1; EIG  1.2797034E-01 AU
 TTTTTTTTTTTTTTTTTTTTTTTTTTTTTT PDIG        TELAPSE    17503.33 TCPU    17494.38
 CHARGE NORMALIZATION FACTOR   1.00000000
 TOTAL ATOMIC CHARGES:
   4.7205770   8.6398688   4.7301890   7.2763675   4.7148894   7.2764039
   4.7182140   7.2838703   4.6409097   7.2901817   4.7148920   7.2763650
   4.7182124   7.2838851   4.7302112   7.2763502   4.7078857   7.3012684
   4.7206231   7.2455409   4.6635377   7.2885848   4.7302190   7.2766447
   4.6388067   7.2967162   4.6635392   7.2886283   4.7089121   7.3049183
   4.7206417   7.2455223   4.7111342   7.2670834   4.7089088   7.3049306
   4.7271555   7.2751118   5.6059508   7.2795918   4.7157092   7.2927423
   4.7271563   7.2751022   4.7212656   7.2964365   4.7022990   7.2969730
   4.7100100   7.2628594   4.7212559   7.2964322   4.7157180   7.2927971
 SUMMED SPIN DENSITY          -0.00000000
 TOTAL ATOMIC SPINS  :
  -0.0000000  -0.0000000  -0.0000000  -0.0000000  -0.0000000  -0.0000000
  -0.0000000   0.0000000  -0.0000000   0.0000000  -0.0000000  -0.0000000
   0.0000000  -0.0000000  -0.0000000   0.0000000  -0.0000000   0.0000000
  -0.0000000  -0.0000000  -0.0000000  -0.0000000  -0.0000000   0.0000000
  -0.0000000   0.0000000   0.0000000   0.0000000   0.0000000   0.0000000
   0.0000000   0.0000000  -0.0000000   0.0000000  -0.0000000   0.0000000
  -0.0000000   0.0000000  -0.0000000   0.0000000  -0.0000000   0.0000000
  -0.0000000  -0.0000000   0.0000000   0.0000000   0.0000000  -0.0000000
  -0.0000000   0.0000000   0.0000000   0.0000000  -0.0000000   0.0000000
 TTTTTTTTTTTTTTTTTTTTTTTTTTTTTT MOQGAD      TELAPSE    17503.43 TCPU    17494.48
 TTTTTTTTTTTTTTTTTTTTTTTTTTTTTT SHELLXN     TELAPSE    20192.23 TCPU    20182.80
 TTTTTTTTTTTTTTTTTTTTTTTTTTTTTT MONMO3      TELAPSE    20296.56 TCPU    20287.13
 NUMERICALLY INTEGRATED DENSITY    163.0001853644    163.0001853644
 TTTTTTTTTTTTTTTTTTTTTTTTTTTTTT NUMDFT      TELAPSE    20345.14 TCPU    20335.70
 CYC   6 ETOT(AU) -2.181988477579E+03 DETOT -1.02E-03 tst  1.76E-05 PX  1.16E-02
 TTTTTTTTTTTTTTTTTTTTTTTTTTTTTT DIIS        TELAPSE    20346.10 TCPU    20336.25
 DIIS TEST: 0.92988E-03 AT SCF   CYCLE   6 - DIIS ACTIVE - HISTORY:     6 CYCLES
 TTTTTTTTTTTTTTTTTTTTTTTTTTTTTT FDIK        TELAPSE    20396.03 TCPU    20385.95

    ALPHA      ELECTRONS
 INSULATING STATE
 TOP OF VALENCE BANDS -    BAND    163; K   17; EIG  1.1411469E-01 AU
 TOP OF VALENCE BANDS -    BAND    163; K    1; EIG  9.4658108E-02 AU
 BOTTOM OF VIRTUAL BANDS - BAND    164; K   22; EIG  1.2519263E-01 AU
 INDIRECT ENERGY BAND GAP:   0.3014 eV
 BOTTOM OF VIRTUAL BANDS - BAND    164; K    1; EIG  1.2813223E-01 AU

    BETA       ELECTRONS
 INSULATING STATE
 TOP OF VALENCE BANDS -    BAND    163; K   17; EIG  1.1411469E-01 AU
 TOP OF VALENCE BANDS -    BAND    163; K    1; EIG  9.4658108E-02 AU
 BOTTOM OF VIRTUAL BANDS - BAND    164; K   22; EIG  1.2519263E-01 AU
 INDIRECT ENERGY BAND GAP:   0.3014 eV
 BOTTOM OF VIRTUAL BANDS - BAND    164; K    1; EIG  1.2813223E-01 AU
 TTTTTTTTTTTTTTTTTTTTTTTTTTTTTT PDIG        TELAPSE    20400.21 TCPU    20390.01
 CHARGE NORMALIZATION FACTOR   1.00000000
 TOTAL ATOMIC CHARGES:
   4.7217781   8.6490010   4.7300536   7.2769083   4.7137351   7.2783460
   4.7179170   7.2831362   4.6421833   7.2905748   4.7137447   7.2783284
   4.7179094   7.2831461   4.7300626   7.2769012   4.7052878   7.2981302
   4.7199415   7.2465260   4.6678560   7.2899391   4.7308811   7.2788079
   4.6417068   7.2958070   4.6678597   7.2899813   4.7076447   7.3032672
   4.7199436   7.2465152   4.7086779   7.2654750   4.7076328   7.3032758
   4.7283375   7.2773337   5.5981391   7.2793719   4.7145842   7.2917322
   4.7283460   7.2773226   4.7205268   7.2963772   4.7004108   7.2972367
   4.7072739   7.2608521   4.7205245   7.2963743   4.7145832   7.2917906
 SUMMED SPIN DENSITY          -0.00000000
 TOTAL ATOMIC SPINS  :
  -0.0000000  -0.0000000  -0.0000000  -0.0000000  -0.0000000  -0.0000000
  -0.0000000   0.0000000  -0.0000000   0.0000000  -0.0000000  -0.0000000
   0.0000000  -0.0000000  -0.0000000   0.0000000  -0.0000000   0.0000000
  -0.0000000  -0.0000000   0.0000000  -0.0000000  -0.0000000   0.0000000
   0.0000000   0.0000000   0.0000000  -0.0000000   0.0000000   0.0000000
   0.0000000  -0.0000000  -0.0000000  -0.0000000   0.0000000   0.0000000
  -0.0000000   0.0000000   0.0000000   0.0000000  -0.0000000  -0.0000000
   0.0000000  -0.0000000   0.0000000   0.0000000  -0.0000000  -0.0000000
  -0.0000000  -0.0000000   0.0000000   0.0000000  -0.0000000   0.0000000
 TTTTTTTTTTTTTTTTTTTTTTTTTTTTTT MOQGAD      TELAPSE    20400.31 TCPU    20390.11
 TTTTTTTTTTTTTTTTTTTTTTTTTTTTTT SHELLXN     TELAPSE    23094.87 TCPU    23084.13
 TTTTTTTTTTTTTTTTTTTTTTTTTTTTTT MONMO3      TELAPSE    23197.84 TCPU    23187.09
 NUMERICALLY INTEGRATED DENSITY    163.0001853629    163.0001853629
 TTTTTTTTTTTTTTTTTTTTTTTTTTTTTT NUMDFT      TELAPSE    23246.69 TCPU    23235.94
 CYC   7 ETOT(AU) -2.181988536089E+03 DETOT -5.85E-05 tst  2.17E-06 PX  4.61E-03
 TTTTTTTTTTTTTTTTTTTTTTTTTTTTTT DIIS        TELAPSE    23247.88 TCPU    23237.12
 DIIS TEST: 0.19382E-03 AT SCF   CYCLE   7 - DIIS ACTIVE - HISTORY:     7 CYCLES
 TTTTTTTTTTTTTTTTTTTTTTTTTTTTTT FDIK        TELAPSE    23300.62 TCPU    23289.76

    ALPHA      ELECTRONS
 INSULATING STATE
 TOP OF VALENCE BANDS -    BAND    163; K   17; EIG  1.1423930E-01 AU
 TOP OF VALENCE BANDS -    BAND    163; K    1; EIG  9.4800249E-02 AU
 BOTTOM OF VIRTUAL BANDS - BAND    164; K   22; EIG  1.2521571E-01 AU
 INDIRECT ENERGY BAND GAP:   0.2987 eV
 BOTTOM OF VIRTUAL BANDS - BAND    164; K    1; EIG  1.2808799E-01 AU

    BETA       ELECTRONS
 INSULATING STATE
 TOP OF VALENCE BANDS -    BAND    163; K   17; EIG  1.1423930E-01 AU
 TOP OF VALENCE BANDS -    BAND    163; K    1; EIG  9.4800249E-02 AU
 BOTTOM OF VIRTUAL BANDS - BAND    164; K   22; EIG  1.2521571E-01 AU
 INDIRECT ENERGY BAND GAP:   0.2987 eV
 BOTTOM OF VIRTUAL BANDS - BAND    164; K    1; EIG  1.2808799E-01 AU
[...]
                 19 B    (  1  0 -1)     2.935     1.553     0.000
                 33 B    (  0  0  0)     2.943     1.557     0.000
                 32 N    (  1  0 -1)     4.778     2.528     0.000
                 16 N    (  0  0  0)     4.778     2.528    -0.000

 ATOM A  15 B    ATOM B     CELL      R(AB)/AU R(AB)/ANG    OVPOP(AB)
                 46 N    (  0  0  0)     2.928     1.550    -0.000
                 50 N    (  0  0  0)     2.929     1.550    -0.000
                  8 N    (  0  0  0)     2.935     1.553    -0.000
                 44 N    (  0  0  0)     2.935     1.553    -0.000
                  3 B    (  0  0  0)     4.781     2.530     0.000
                 39 C    (  0  0  0)     4.781     2.530     0.000

 ATOM A  16 N    ATOM B     CELL      R(AB)/AU R(AB)/ANG    OVPOP(AB)
                 21 B    (  0  0  0)     2.872     1.520    -0.000
                  5 B    (  0  0  0)     2.935     1.553     0.000
                 23 B    (  1  0  0)     2.935     1.553     0.000
                 35 B    (  0  0  0)     2.943     1.557    -0.000
                 32 N    (  1  0 -1)     4.778     2.528    -0.000
                 14 N    (  0  0  0)     4.778     2.528    -0.000

 ATOM A  17 B    ATOM B     CELL      R(AB)/AU R(AB)/ANG    OVPOP(AB)
                 48 N    (  0  0  0)     2.929     1.550    -0.000
                 52 N    (  0  0  0)     2.929     1.550     0.000
                 46 N    (  0  0  0)     2.929     1.550     0.000
                 10 N    (  0  0  0)     2.935     1.553     0.000
                 49 B    (  0  0  0)     4.776     2.528    -0.000
                 41 B    (  0  0  0)     4.776     2.528     0.000

 ATOM A  18 N    ATOM B     CELL      R(AB)/AU R(AB)/ANG    OVPOP(AB)
                 23 B    (  0  0  0)     2.929     1.550     0.000
                 19 B    (  0  0  0)     2.929     1.550     0.000
                 31 B    (  0  0  0)     2.929     1.550    -0.000
                  1 B    (  0  0  0)     2.933     1.552     0.000
                 34 N    (  0  0  0)     4.786     2.533     0.000
                 30 N    (  0  0  0)     4.786     2.533     0.000

 ATOM A  19 B    ATOM B     CELL      R(AB)/AU R(AB)/ANG    OVPOP(AB)
                 36 N    (  0  0  0)     2.928     1.550    -0.000
                 18 N    (  0  0  0)     2.929     1.550     0.000
                 14 N    ( -1  0  1)     2.935     1.553     0.000
                  6 N    (  0  0  0)     2.935     1.553     0.000
                 31 B    (  0  0  0)     4.781     2.530    -0.000
                 23 B    (  0  0  0)     4.782     2.530    -0.000

 ATOM A  20 N    ATOM B     CELL      R(AB)/AU R(AB)/ANG    OVPOP(AB)
                 27 B    ( -1  0  1)     2.872     1.520     0.000
                 43 B    (  0  0  0)     2.935     1.553    -0.000
                 39 C    (  0 -1  1)     2.935     1.553     0.000
                 45 B    (  0 -1  1)     2.943     1.557     0.000
                  4 N    ( -1  0  1)     4.778     2.528    -0.000
                  8 N    ( -1  0  1)     4.778     2.528     0.000

 ATOM A  21 B    ATOM B     CELL      R(AB)/AU R(AB)/ANG    OVPOP(AB)
                 16 N    (  0  0  0)     2.872     1.520    -0.000
                 32 N    (  1  0 -1)     2.872     1.520    -0.000
                 14 N    (  0  0  0)     2.872     1.520     0.000
                  2 O    (  0  1  0)     3.103     1.642     0.000
                 33 B    (  0  0  0)     4.648     2.460    -0.000
                 35 B    (  0  0  0)     4.648     2.460     0.000

 ATOM A  22 N    ATOM B     CELL      R(AB)/AU R(AB)/ANG    OVPOP(AB)
                 45 B    (  0  0  0)     2.926     1.549     0.000
                 29 B    (  0  0  0)     2.926     1.549     0.000
                 47 B    (  0  0  0)     2.926     1.549     0.000
                 41 B    (  0  0  0)     2.935     1.553     0.000
                 34 N    (  0  0  0)     4.784     2.532    -0.000
                 52 N    (  0  0  0)     4.784     2.532     0.000

 ATOM A  23 B    ATOM B     CELL      R(AB)/AU R(AB)/ANG    OVPOP(AB)
                 34 N    (  0  0  0)     2.928     1.550    -0.000
                 18 N    (  0  0  0)     2.929     1.550     0.000
                 16 N    ( -1  0  0)     2.935     1.553     0.000
                  4 N    ( -1  1  0)     2.935     1.553    -0.000
                 31 B    (  0  0  0)     4.781     2.530     0.000
                 19 B    (  0  0  0)     4.782     2.530    -0.000

 ATOM A  24 N    ATOM B     CELL      R(AB)/AU R(AB)/ANG    OVPOP(AB)
                 25 B    (  0  1  0)     2.872     1.520     0.000
                 37 B    (  0  0  0)     2.935     1.553    -0.000
                 43 B    (  0  1  0)     2.935     1.553     0.000
                 47 B    (  0  0  0)     2.943     1.557    -0.000
                 12 N    (  0  1  0)     4.778     2.528     0.000
                  6 N    (  0  0  0)     4.778     2.528    -0.000

 ATOM A  25 B    ATOM B     CELL      R(AB)/AU R(AB)/ANG    OVPOP(AB)
                 24 N    (  0 -1  0)     2.872     1.520     0.000
                 12 N    (  0  0  0)     2.872     1.520    -0.000
                  6 N    (  0 -1  0)     2.872     1.520    -0.000
                  2 O    ( -1  0  1)     3.103     1.642     0.000
                 47 B    (  0 -1  0)     4.648     2.460    -0.000
                 35 B    ( -1  0  0)     4.648     2.460     0.000

 ATOM A  26 N    ATOM B     CELL      R(AB)/AU R(AB)/ANG    OVPOP(AB)
                 33 B    ( -1  0  1)     2.926     1.549     0.000
                 51 B    (  0  0  1)     2.926     1.549     0.000
                 45 B    (  0 -1  1)     2.926     1.549     0.000
                 49 B    (  0  0  0)     2.935     1.553    -0.000
                 48 N    (  0  0  0)     4.784     2.532     0.000
                 36 N    (  0  0  0)     4.784     2.532    -0.000

 ATOM A  27 B    ATOM B     CELL      R(AB)/AU R(AB)/ANG    OVPOP(AB)
                  4 N    (  0  0  0)     2.872     1.520     0.000
                  8 N    (  0  0  0)     2.872     1.520     0.000
                 20 N    (  1  0 -1)     2.872     1.520     0.000
                  2 O    (  0  0  0)     3.103     1.642     0.000
                 33 B    (  0  0  0)     4.648     2.460     0.000
                 29 B    (  1 -1  0)     4.648     2.460    -0.000

 ATOM A  28 N    ATOM B     CELL      R(AB)/AU R(AB)/ANG    OVPOP(AB)
                 51 B    (  0  0  0)     2.926     1.549    -0.000
                 35 B    ( -1  0  0)     2.926     1.549     0.000
                 47 B    (  0 -1  0)     2.926     1.549    -0.000
                 53 B    (  0  0  0)     2.935     1.553     0.000
                 34 N    (  0  0  0)     4.784     2.532    -0.000
                 46 N    (  0  0  0)     4.784     2.532     0.000

 ATOM A  29 B    ATOM B     CELL      R(AB)/AU R(AB)/ANG    OVPOP(AB)
                 22 N    (  0  0  0)     2.926     1.549     0.000
                 10 N    ( -1  1  0)     2.926     1.549     0.000
                  6 N    (  0  0  0)     2.943     1.557    -0.000
                  4 N    ( -1  1  0)     2.943     1.557     0.000
                 27 B    ( -1  1  0)     4.648     2.460    -0.000
                 25 B    (  0  1  0)     4.648     2.460     0.000

 ATOM A  30 N    ATOM B     CELL      R(AB)/AU R(AB)/ANG    OVPOP(AB)
                 31 B    (  0  0  0)     2.928     1.550    -0.000
                 43 B    (  0  0  0)     2.928     1.550     0.000
                 53 B    (  0  0  0)     2.929     1.550    -0.000
                 49 B    (  0  0  0)     2.929     1.550     0.000
                 26 N    (  0  0  0)     4.784     2.532     0.000
                 28 N    (  0  0  0)     4.784     2.532    -0.000

 ATOM A  31 B    ATOM B     CELL      R(AB)/AU R(AB)/ANG    OVPOP(AB)
                 30 N    (  0  0  0)     2.928     1.550    -0.000
                 18 N    (  0  0  0)     2.929     1.550    -0.000
                  8 N    ( -1  0  1)     2.935     1.553     0.000
                 12 N    (  0  0  0)     2.935     1.553    -0.000
                 19 B    (  0  0  0)     4.781     2.530    -0.000
                 23 B    (  0  0  0)     4.781     2.530     0.000

 ATOM A  32 N    ATOM B     CELL      R(AB)/AU R(AB)/ANG    OVPOP(AB)
                 21 B    ( -1  0  1)     2.872     1.520    -0.000
                 37 B    (  0  0  0)     2.935     1.553     0.000
                 39 C    (  0  0  1)     2.935     1.553    -0.000
                 51 B    (  0  0  1)     2.943     1.557     0.000
                 16 N    ( -1  0  1)     4.778     2.528    -0.000
                 14 N    ( -1  0  1)     4.778     2.528     0.000

 ATOM A  33 B    ATOM B     CELL      R(AB)/AU R(AB)/ANG    OVPOP(AB)
                 10 N    (  0  0  0)     2.926     1.549     0.000
                 26 N    (  1  0 -1)     2.926     1.549     0.000
                  8 N    (  0  0  0)     2.943     1.557     0.000
                 14 N    (  0  0  0)     2.943     1.557     0.000
                 27 B    (  0  0  0)     4.648     2.460     0.000
                 21 B    (  0  0  0)     4.648     2.460    -0.000

 ATOM A  34 N    ATOM B     CELL      R(AB)/AU R(AB)/ANG    OVPOP(AB)
                 23 B    (  0  0  0)     2.928     1.550    -0.000
                 39 C    (  0  0  0)     2.928     1.550     0.000
                 53 B    (  0  0  0)     2.929     1.550     0.000
                 41 B    (  0  0  0)     2.929     1.550    -0.000
                 28 N    (  0  0  0)     4.784     2.532    -0.000
                 22 N    (  0  0  0)     4.784     2.532    -0.000

 ATOM A  35 B    ATOM B     CELL      R(AB)/AU R(AB)/ANG    OVPOP(AB)
                 28 N    (  1  0  0)     2.926     1.549     0.000
                 10 N    (  0  0  0)     2.926     1.549     0.000
                 12 N    (  1  0  0)     2.943     1.557    -0.000
                 16 N    (  0  0  0)     2.943     1.557    -0.000
                 25 B    (  1  0  0)     4.648     2.460     0.000
                 21 B    (  0  0  0)     4.648     2.460     0.000

 ATOM A  36 N    ATOM B     CELL      R(AB)/AU R(AB)/ANG    OVPOP(AB)
                 19 B    (  0  0  0)     2.928     1.550    -0.000
                 37 B    (  0  0  0)     2.928     1.550     0.000
                 41 B    (  0  0  0)     2.929     1.550     0.000
                 49 B    (  0  0  0)     2.929     1.550     0.000
                 26 N    (  0  0  0)     4.784     2.532    -0.000
                 22 N    (  0  0  0)     4.784     2.532     0.000

 ATOM A  37 B    ATOM B     CELL      R(AB)/AU R(AB)/ANG    OVPOP(AB)
                 36 N    (  0  0  0)     2.928     1.550     0.000
                 54 N    (  0  0  0)     2.929     1.550     0.000
                 32 N    (  0  0  0)     2.935     1.553     0.000
                 24 N    (  0  0  0)     2.935     1.553    -0.000
                  5 B    (  0  0  0)     4.781     2.530    -0.000
                 13 B    (  0  0  0)     4.782     2.530    -0.000

 ATOM A  38 N    ATOM B     CELL      R(AB)/AU R(AB)/ANG    OVPOP(AB)
                  9 B    (  0  1  0)     2.872     1.520    -0.000
                  7 B    (  0  1 -1)     2.935     1.553    -0.000
                  3 B    (  0  0  0)     2.935     1.553    -0.000
                 45 B    (  0  0  0)     2.943     1.557    -0.000
                 44 N    (  0  1  0)     4.778     2.528     0.000
                 40 N    (  0  1  0)     4.778     2.528    -0.000

 ATOM A  39 C    ATOM B     CELL      R(AB)/AU R(AB)/ANG    OVPOP(AB)
                 34 N    (  0  0  0)     2.928     1.550     0.000
                 50 N    (  0  0  0)     2.929     1.550    -0.000
                 32 N    (  0  0 -1)     2.935     1.553    -0.000
                 20 N    (  0  1 -1)     2.935     1.553     0.000
                 15 B    (  0  0  0)     4.781     2.530     0.000
                  3 B    (  0  0  0)     4.782     2.530     0.000

 ATOM A  40 N    ATOM B     CELL      R(AB)/AU R(AB)/ANG    OVPOP(AB)
                  9 B    (  0  0  0)     2.872     1.520     0.000
                 11 B    (  0  0  0)     2.935     1.553    -0.000
                  5 B    (  0 -1  0)     2.935     1.553    -0.000
                 47 B    (  0 -1  0)     2.943     1.557    -0.000
                 38 N    (  0 -1  0)     4.778     2.528    -0.000
                 44 N    (  0  0  0)     4.778     2.528    -0.000

 ATOM A  41 B    ATOM B     CELL      R(AB)/AU R(AB)/ANG    OVPOP(AB)
                 52 N    (  0  0  0)     2.929     1.550    -0.000
                 36 N    (  0  0  0)     2.929     1.550     0.000
                 34 N    (  0  0  0)     2.929     1.550    -0.000
                 22 N    (  0  0  0)     2.935     1.553     0.000
                 53 B    (  0  0  0)     4.776     2.528     0.000
                 17 B    (  0  0  0)     4.776     2.528     0.000

 ATOM A  42 N    ATOM B     CELL      R(AB)/AU R(AB)/ANG    OVPOP(AB)
                 11 B    (  0  0  0)     2.929     1.550    -0.000
                 43 B    (  0  0  0)     2.929     1.550    -0.000
                  7 B    (  0  0  0)     2.929     1.550    -0.000
                  1 B    (  1 -1  0)     2.933     1.552    -0.000
                 48 N    (  0  0  0)     4.786     2.533     0.000
                 30 N    (  0  0  0)     4.786     2.533    -0.000

 ATOM A  43 B    ATOM B     CELL      R(AB)/AU R(AB)/ANG    OVPOP(AB)
                 30 N    (  0  0  0)     2.928     1.550     0.000
                 42 N    (  0  0  0)     2.929     1.550    -0.000
                 20 N    (  0  0  0)     2.935     1.553    -0.000
                 24 N    (  0 -1  0)     2.935     1.553     0.000
                 11 B    (  0  0  0)     4.781     2.530    -0.000
                  7 B    (  0  0  0)     4.782     2.530     0.000

 ATOM A  44 N    ATOM B     CELL      R(AB)/AU R(AB)/ANG    OVPOP(AB)
                  9 B    (  0  0  0)     2.872     1.520     0.000
                 13 B    (  0  0 -1)     2.935     1.553    -0.000
                 15 B    (  0  0  0)     2.935     1.553    -0.000
                 51 B    (  0  0  0)     2.943     1.557    -0.000
                 38 N    (  0 -1  0)     4.778     2.528     0.000
                 40 N    (  0  0  0)     4.778     2.528    -0.000

 ATOM A  45 B    ATOM B     CELL      R(AB)/AU R(AB)/ANG    OVPOP(AB)
                 22 N    (  0  0  0)     2.926     1.549     0.000
                 26 N    (  0  1 -1)     2.926     1.549     0.000
                 20 N    (  0  1 -1)     2.943     1.557     0.000
                 38 N    (  0  0  0)     2.943     1.557    -0.000
                 27 B    ( -1  1  0)     4.648     2.460     0.000
                  9 B    (  0  1  0)     4.648     2.460    -0.000

 ATOM A  46 N    ATOM B     CELL      R(AB)/AU R(AB)/ANG    OVPOP(AB)
                 15 B    (  0  0  0)     2.928     1.550    -0.000
                 11 B    (  0  0  0)     2.928     1.550    -0.000
                 53 B    (  0  0  0)     2.929     1.550     0.000
                 17 B    (  0  0  0)     2.929     1.550     0.000
                 28 N    (  0  0  0)     4.784     2.532     0.000
                 10 N    (  0  0  0)     4.784     2.532     0.000

 ATOM A  47 B    ATOM B     CELL      R(AB)/AU R(AB)/ANG    OVPOP(AB)
                 22 N    (  0  0  0)     2.926     1.549     0.000
                 28 N    (  0  1  0)     2.926     1.549    -0.000
                 40 N    (  0  1  0)     2.943     1.557    -0.000
                 24 N    (  0  0  0)     2.943     1.557    -0.000
                 25 B    (  0  1  0)     4.648     2.460    -0.000
                  9 B    (  0  1  0)     4.648     2.460    -0.000

 ATOM A  48 N    ATOM B     CELL      R(AB)/AU R(AB)/ANG    OVPOP(AB)
                 13 B    (  0  0  0)     2.928     1.550     0.000
                  7 B    (  0  0  0)     2.928     1.550     0.000
                 17 B    (  0  0  0)     2.929     1.550    -0.000
                 49 B    (  0  0  0)     2.929     1.550     0.000
                 10 N    (  0  0  0)     4.784     2.532     0.000
                 26 N    (  0  0  0)     4.784     2.532     0.000

 ATOM A  49 B    ATOM B     CELL      R(AB)/AU R(AB)/ANG    OVPOP(AB)
                 48 N    (  0  0  0)     2.929     1.550     0.000
                 36 N    (  0  0  0)     2.929     1.550     0.000
                 30 N    (  0  0  0)     2.929     1.550     0.000
                 26 N    (  0  0  0)     2.935     1.553    -0.000
                 17 B    (  0  0  0)     4.776     2.528    -0.000
                 53 B    (  0  0  0)     4.777     2.528     0.000

 ATOM A  50 N    ATOM B     CELL      R(AB)/AU R(AB)/ANG    OVPOP(AB)
                 39 C    (  0  0  0)     2.929     1.550    -0.000
                 15 B    (  0  0  0)     2.929     1.550    -0.000
                  3 B    (  0  0  0)     2.929     1.550    -0.000
                  1 B    (  1  0 -1)     2.933     1.552    -0.000
                 34 N    (  0  0  0)     4.786     2.533     0.000
                 52 N    (  0  0  0)     4.786     2.533     0.000

 ATOM A  51 B    ATOM B     CELL      R(AB)/AU R(AB)/ANG    OVPOP(AB)
                 28 N    (  0  0  0)     2.926     1.549    -0.000
                 26 N    (  0  0 -1)     2.926     1.549     0.000
                 32 N    (  0  0 -1)     2.943     1.557     0.000
                 44 N    (  0  0  0)     2.943     1.557    -0.000
                  9 B    (  0  0  0)     4.648     2.460     0.000
                 21 B    ( -1  0  0)     4.648     2.460     0.000

 ATOM A  52 N    ATOM B     CELL      R(AB)/AU R(AB)/ANG    OVPOP(AB)
                  3 B    (  0  0  0)     2.928     1.550     0.000
                  5 B    (  0  0  0)     2.928     1.550    -0.000
                 41 B    (  0  0  0)     2.929     1.550    -0.000
                 17 B    (  0  0  0)     2.929     1.550     0.000
                 22 N    (  0  0  0)     4.784     2.532     0.000
                 10 N    (  0  0  0)     4.784     2.532     0.000

 ATOM A  53 B    ATOM B     CELL      R(AB)/AU R(AB)/ANG    OVPOP(AB)
                 30 N    (  0  0  0)     2.929     1.550    -0.000
                 46 N    (  0  0  0)     2.929     1.550     0.000
                 34 N    (  0  0  0)     2.929     1.550     0.000
                 28 N    (  0  0  0)     2.935     1.553     0.000
                 41 B    (  0  0  0)     4.776     2.528     0.000
                 17 B    (  0  0  0)     4.776     2.528     0.000

 ATOM A  54 N    ATOM B     CELL      R(AB)/AU R(AB)/ANG    OVPOP(AB)
                  5 B    (  0  0  0)     2.929     1.550    -0.000
                 37 B    (  0  0  0)     2.929     1.550     0.000
                 13 B    (  0  0  0)     2.929     1.550     0.000
                  1 B    (  1  0  0)     2.933     1.552     0.000
                 48 N    (  0  0  0)     4.786     2.533     0.000
                 36 N    (  0  0  0)     4.786     2.533    -0.000
 EIGENVECTORS IN FORTRAN UNIT  8
 TTTTTTTTTTTTTTTTTTTTTTTTTTTTTT END         TELAPSE    37681.02 TCPU    37665.26
 EEEEEEEEEE TERMINATION  DATE 23 03 2023 TIME 19:38:24.6
NODE    0 CPU TIME =     37665.260
NODE    1 CPU TIME =     37664.550
NODE    2 CPU TIME =     37665.277
NODE    3 CPU TIME =     37665.862
NODE    4 CPU TIME =     37647.187
NODE    5 CPU TIME =     37647.938
NODE    6 CPU TIME =     37637.277
NODE    7 CPU TIME =     37644.214
NODE    8 CPU TIME =     37666.145
NODE    9 CPU TIME =     37664.311
NODE   10 CPU TIME =     37659.730
NODE   11 CPU TIME =     37665.138
NODE   12 CPU TIME =     37668.969
NODE   13 CPU TIME =     37665.616
NODE   14 CPU TIME =     37665.347
NODE   15 CPU TIME =     37666.661
    TOTAL CPU TIME =    602559.483
