
         
 *******************************************************************************
 *                                                                             *
 *                               CRYSTAL17                                     *
 *                      public : 1.0.2 - March 1st, 2018                       *
 *                       HTTP://WWW.CRYSTAL.UNITO.IT                           *
 *                                                                             *
 *                              MAIN AUTHORS                                   *
 *                                                                             *
 *  R. DOVESI(1,11), V.R. SAUNDERS(2), C. ROETTI(1,11), R. ORLANDO(1,11),      *
 *  C.M. ZICOVICH-WILSON(1,3), F. PASCALE(4), B. CIVALLERI(1,11),              *
 *  K. DOLL(5), N.M. HARRISON(2,6), I.J. BUSH(7), Ph. D'ARCO(8),               *
 *  M. LLUNELL(9), M. CAUSA'(10), Y. NOEL(8), L. MASCHIO(1,11), A. ERBA(1,11)  *
 *  M. RE'RAT(14), S. CASASSA(1,11)                                            *
 *                                                                             *
 *        CONTRIBUTIONS TO THE CODE HAVE ALSO BEEN GIVEN BY                    *
 *                                                                             *
 *  M. FERRABONE(1,11), M. DE LA PIERRE(1,11), M. FERRERO(1,11),               *
 *  J. BAIMA(1,11), E. ALBANESE(1,11), M.F. PEINTINGER(12), R. BAST(13),       *
 *  B. KIRTMAN(15), V. LACIVITA(1,11), R. DEMICHELIS(1,16)                     *
 *  G. BRANDEBURG(17), S. SALUSTRO(1,11), G. SANSONE(1,11)                     *
 *  M.T. RUGGIERO(18)                                                          *
 *                                                                             *
 * (1) THEORETICAL CHEMISTRY GROUP - UNIVERSITA' DI TORINO - TORINO (ITALY)    *
 * (2) COMPUTATIONAL SCIENCE & ENGINEERING DEPARTMENT - STFC DARESBURY (UK)    *
 * (3) UNIVERSIDAD AUTONOMA DEL ESTADO DE MORELOS - CUERNAVACA (MEXICO)        *
 * (4) UNIVERSITE' DE LORRAINE - NANCY (FRANCE)                                *
 * (5) UNIVERSITAET STUTTGART- STUTTGART (GERMANY)                             *
 * (6) IMPERIAL COLLEGE - LONDON (UK)                                          *
 * (7) OXFORD E-RESEARCH CENTRE - OXFORD (UK)                                  *
 * (8) UPMC - SORBONNE UNIVERSITES - PARIS (FRANCE)                            *
 * (9) UNIVERSIDAD DE BARCELONA - BARCELONA (SPAIN)                            *
 *(10) UNIVERSITA' DI NAPOLI "FEDERICO II" - NAPOLI (ITALY)                    *
 *(11) NIS - NANOSTRUCTURED INTERFACES AND SURFACES - TORINO (ITALY)           *
 *(12) MPI FUER CHEMISCHE ENERGIEKONVERSION - MUELHEIM AN DER RUHR (GERMANY)   *
 *(13) UNIVERSITY OF TROMSO - TROMSO (NORWAY)                                  *
 *(14) UNIVERSITE' DE PAU ET DES PAYS DE L'ADOUR - PAU (FRANCE)                *
 *(15) UNIVERSITY OF CALIFORNIA SANTA BARBARA - SANTA BARBARA (USA)            *
 *(16) CURTIN UNIVERSITY - PERTH (AUSTRALIA)                                   *
 *(17) UNIVERSITY COLLEGE LONDON - LONDON (UK)                                 *
 *(18) CAMBRIDGE UNIVERSITY - CAMBRIDGE (UK)                                   *
 *                                                                             *
 *******************************************************************************
 EEEEEEEEEE STARTING  DATE 22 03 2023 TIME 16:53:19.5
 substitutionscBN_O_N_87                                                         

 CRYSTAL CALCULATION
 (INPUT ACCORDING TO THE INTERNATIONAL TABLES FOR X-RAY CRYSTALLOGRAPHY)
 CRYSTAL FAMILY                       :  TRICLINIC   
 CRYSTAL CLASS  (GROTH - 1921)        :  TRICLINIC PEDIAL                     

 SPACE GROUP (NONCENTROSYMMETRIC)     :  P 1             

 LATTICE PARAMETERS  (ANGSTROMS AND DEGREES) - CONVENTIONAL CELL
        A           B           C        ALPHA        BETA       GAMMA
     7.59965     7.59952     7.59966    60.00060    59.99890    60.00030


 NUMBER OF IRREDUCIBLE ATOMS IN THE CONVENTIONAL CELL:   54

 INPUT COORDINATES

 ATOM AT. N.              COORDINATES
   1   5     2.500030000000E-01  2.499990000000E-01  2.500050000000E-01
   2   8     5.000030000000E-01  4.999950000000E-01  5.000120000000E-01
   3   5     2.497810000000E-01  2.497770000000E-01  5.836080000000E-01
   4   7     5.000650000000E-01  5.000730000000E-01  8.327690000000E-01
   5   5     2.497760000000E-01  2.497770000000E-01  9.168350000000E-01
   6   7     5.000770000000E-01  5.000720000000E-01  1.670850000000E-01
   7   5     2.497850000000E-01  5.836020000000E-01  2.497810000000E-01
   8   7     5.000670000000E-01  8.327710000000E-01  5.000700000000E-01
   9   5     2.354100000000E-01  5.881990000000E-01  5.881930000000E-01
  10   7     4.997150000000E-01  8.334310000000E-01  8.334260000000E-01
  11   5     2.497740000000E-01  5.836090000000E-01  9.168380000000E-01
  12   7     5.000760000000E-01  8.327650000000E-01  1.670870000000E-01
  13   5     2.497840000000E-01  9.168280000000E-01  2.497790000000E-01
  14   7     5.000680000000E-01  1.670930000000E-01  5.000710000000E-01
  15   5     2.497770000000E-01  9.168330000000E-01  5.836120000000E-01
  16   7     5.000660000000E-01  1.670950000000E-01  8.327640000000E-01
  17   5     2.494470000000E-01  9.168500000000E-01  9.168540000000E-01
  18   7     5.001060000000E-01  1.666320000000E-01  1.666290000000E-01
  19   5     5.836090000000E-01  2.497750000000E-01  2.497830000000E-01
  20   7     8.327660000000E-01  5.000740000000E-01  5.000710000000E-01
  21   5     5.881930000000E-01  2.354030000000E-01  5.882050000000E-01
  22   7     8.334250000000E-01  4.997210000000E-01  8.334240000000E-01
  23   5     5.836080000000E-01  2.497750000000E-01  9.168380000000E-01
  24   7     8.327680000000E-01  5.000700000000E-01  1.670900000000E-01
  25   5     5.882140000000E-01  5.882030000000E-01  2.353820000000E-01
  26   7     8.334270000000E-01  8.334300000000E-01  4.997150000000E-01
  27   5     5.881960000000E-01  5.882030000000E-01  5.882070000000E-01
  28   7     8.334250000000E-01  8.334310000000E-01  8.334240000000E-01
  29   6     5.838680000000E-01  5.838680000000E-01  9.161300000000E-01
  30   7     8.333300000000E-01  8.333320000000E-01  1.666670000000E-01
  31   5     5.836130000000E-01  9.168310000000E-01  2.497800000000E-01
  32   7     8.327610000000E-01  1.670920000000E-01  5.000720000000E-01
  33   5     5.838710000000E-01  9.161250000000E-01  5.838730000000E-01
  34   7     8.333270000000E-01  1.666720000000E-01  8.333300000000E-01
  35   5     5.838640000000E-01  9.161330000000E-01  9.161360000000E-01
  36   7     8.333290000000E-01  1.666710000000E-01  1.666670000000E-01
  37   5     9.168340000000E-01  2.497740000000E-01  2.497830000000E-01
  38   7     1.670960000000E-01  5.000730000000E-01  5.000670000000E-01
  39   5     9.168320000000E-01  2.497760000000E-01  5.836120000000E-01
  40   7     1.670820000000E-01  5.000770000000E-01  8.327630000000E-01
  41   5     9.168510000000E-01  2.494470000000E-01  9.168530000000E-01
  42   7     1.666300000000E-01  5.001100000000E-01  1.666290000000E-01
  43   5     9.168370000000E-01  5.836060000000E-01  2.497810000000E-01
  44   7     1.670980000000E-01  8.327630000000E-01  5.000660000000E-01
  45   5     9.161310000000E-01  5.838670000000E-01  5.838700000000E-01
  46   7     1.666660000000E-01  8.333350000000E-01  8.333280000000E-01
  47   5     9.161350000000E-01  5.838630000000E-01  9.161360000000E-01
  48   7     1.666690000000E-01  8.333320000000E-01  1.666660000000E-01
  49   5     9.168540000000E-01  9.168480000000E-01  2.494500000000E-01
  50   7     1.666270000000E-01  1.666330000000E-01  5.001060000000E-01
  51   5     9.161360000000E-01  9.161320000000E-01  5.838660000000E-01
  52   7     1.666650000000E-01  1.666720000000E-01  8.333270000000E-01
  53   5     9.168510000000E-01  9.168500000000E-01  9.168540000000E-01
  54   7     1.666310000000E-01  1.666320000000E-01  1.666300000000E-01

 *******************************************************************************

 << INFORMATION >>: FROM NOW ON, ALL COORDINATES REFER TO THE PRIMITIVE CELL

 *******************************************************************************

 LATTICE PARAMETERS  (ANGSTROMS AND DEGREES) - PRIMITIVE CELL
       A          B          C        ALPHA      BETA     GAMMA        VOLUME
    7.59965    7.59952    7.59966    60.00060  59.99890  60.00030    310.354736

 COORDINATES OF THE EQUIVALENT ATOMS (FRACTIONAL UNITS)

 N. ATOM EQUIV AT. N.          X                  Y                  Z

   1   1   1    5 B     2.50003000000E-01  2.49999000000E-01  2.50005000000E-01

   2   2   1    8 O    -4.99997000000E-01  4.99995000000E-01 -4.99988000000E-01

   3   3   1    5 B     2.49781000000E-01  2.49777000000E-01 -4.16392000000E-01

   4   4   1    7 N    -4.99935000000E-01 -4.99927000000E-01 -1.67231000000E-01

   5   5   1    5 B     2.49776000000E-01  2.49777000000E-01 -8.31650000000E-02

   6   6   1    7 N    -4.99923000000E-01 -4.99928000000E-01  1.67085000000E-01

   7   7   1    5 B     2.49785000000E-01 -4.16398000000E-01  2.49781000000E-01

   8   8   1    7 N    -4.99933000000E-01 -1.67229000000E-01 -4.99930000000E-01

   9   9   1    5 B     2.35410000000E-01 -4.11801000000E-01 -4.11807000000E-01

  10  10   1    7 N     4.99715000000E-01 -1.66569000000E-01 -1.66574000000E-01

  11  11   1    5 B     2.49774000000E-01 -4.16391000000E-01 -8.31620000000E-02

  12  12   1    7 N    -4.99924000000E-01 -1.67235000000E-01  1.67087000000E-01

  13  13   1    5 B     2.49784000000E-01 -8.31720000000E-02  2.49779000000E-01

  14  14   1    7 N    -4.99932000000E-01  1.67093000000E-01 -4.99929000000E-01

  15  15   1    5 B     2.49777000000E-01 -8.31670000000E-02 -4.16388000000E-01

  16  16   1    7 N    -4.99934000000E-01  1.67095000000E-01 -1.67236000000E-01

  17  17   1    5 B     2.49447000000E-01 -8.31500000000E-02 -8.31460000000E-02

  18  18   1    7 N    -4.99894000000E-01  1.66632000000E-01  1.66629000000E-01

  19  19   1    5 B    -4.16391000000E-01  2.49775000000E-01  2.49783000000E-01

  20  20   1    7 N    -1.67234000000E-01 -4.99926000000E-01 -4.99929000000E-01

  21  21   1    5 B    -4.11807000000E-01  2.35403000000E-01 -4.11795000000E-01

  22  22   1    7 N    -1.66575000000E-01  4.99721000000E-01 -1.66576000000E-01

  23  23   1    5 B    -4.16392000000E-01  2.49775000000E-01 -8.31620000000E-02

  24  24   1    7 N    -1.67232000000E-01 -4.99930000000E-01  1.67090000000E-01

  25  25   1    5 B    -4.11786000000E-01 -4.11797000000E-01  2.35382000000E-01

  26  26   1    7 N    -1.66573000000E-01 -1.66570000000E-01  4.99715000000E-01

  27  27   1    5 B    -4.11804000000E-01 -4.11797000000E-01 -4.11793000000E-01

  28  28   1    7 N    -1.66575000000E-01 -1.66569000000E-01 -1.66576000000E-01

  29  29   1    6 C    -4.16132000000E-01 -4.16132000000E-01 -8.38700000000E-02

  30  30   1    7 N    -1.66670000000E-01 -1.66668000000E-01  1.66667000000E-01

  31  31   1    5 B    -4.16387000000E-01 -8.31690000000E-02  2.49780000000E-01

  32  32   1    7 N    -1.67239000000E-01  1.67092000000E-01 -4.99928000000E-01

  33  33   1    5 B    -4.16129000000E-01 -8.38750000000E-02 -4.16127000000E-01

  34  34   1    7 N    -1.66673000000E-01  1.66672000000E-01 -1.66670000000E-01

  35  35   1    5 B    -4.16136000000E-01 -8.38670000000E-02 -8.38640000000E-02

  36  36   1    7 N    -1.66671000000E-01  1.66671000000E-01  1.66667000000E-01

  37  37   1    5 B    -8.31660000000E-02  2.49774000000E-01  2.49783000000E-01

  38  38   1    7 N     1.67096000000E-01 -4.99927000000E-01 -4.99933000000E-01

  39  39   1    5 B    -8.31680000000E-02  2.49776000000E-01 -4.16388000000E-01

  40  40   1    7 N     1.67082000000E-01 -4.99923000000E-01 -1.67237000000E-01

  41  41   1    5 B    -8.31490000000E-02  2.49447000000E-01 -8.31470000000E-02

  42  42   1    7 N     1.66630000000E-01 -4.99890000000E-01  1.66629000000E-01

  43  43   1    5 B    -8.31630000000E-02 -4.16394000000E-01  2.49781000000E-01

  44  44   1    7 N     1.67098000000E-01 -1.67237000000E-01 -4.99934000000E-01

  45  45   1    5 B    -8.38690000000E-02 -4.16133000000E-01 -4.16130000000E-01

  46  46   1    7 N     1.66666000000E-01 -1.66665000000E-01 -1.66672000000E-01

  47  47   1    5 B    -8.38650000000E-02 -4.16137000000E-01 -8.38640000000E-02

  48  48   1    7 N     1.66669000000E-01 -1.66668000000E-01  1.66666000000E-01

  49  49   1    5 B    -8.31460000000E-02 -8.31520000000E-02  2.49450000000E-01

  50  50   1    7 N     1.66627000000E-01  1.66633000000E-01 -4.99894000000E-01

  51  51   1    5 B    -8.38640000000E-02 -8.38680000000E-02 -4.16134000000E-01

  52  52   1    7 N     1.66665000000E-01  1.66672000000E-01 -1.66673000000E-01

  53  53   1    5 B    -8.31490000000E-02 -8.31500000000E-02 -8.31460000000E-02

  54  54   1    7 N     1.66631000000E-01  1.66632000000E-01  1.66630000000E-01

 NUMBER OF SYMMETRY OPERATORS         :    1
 *******************************************************************************
 * GEOMETRY EDITING - INPUT COORDINATES ARE GIVEN IN ANGSTROM         
 *******************************************************************************

 GCALCO - MAX INDICES DIRECT LATTICE VECTOR    14    14    14
 NO.OF VECTORS CREATED 6999 STARS 3499 RMAX   151.98550 BOHR

 GEOMETRY FOR WAVE FUNCTION - DIMENSIONALITY OF THE SYSTEM    3
 (NON PERIODIC DIRECTION: LATTICE PARAMETER FORMALLY SET TO 500)
 *******************************************************************************
 LATTICE PARAMETERS (ANGSTROMS AND DEGREES) - BOHR = 0.5291772083 ANGSTROM
 PRIMITIVE CELL - CENTRING CODE 1/0 VOLUME=   310.354736 - DENSITY  3.629 g/cm^3
         A              B              C           ALPHA      BETA       GAMMA 
     7.59964700     7.59952000     7.59966500    60.000600  59.998900  60.000300
 *******************************************************************************
 ATOMS IN THE ASYMMETRIC UNIT   54 - ATOMS IN THE UNIT CELL:   54
     ATOM                 X/A                 Y/B                 Z/C    
 *******************************************************************************
      1 T   5 B     2.500030000000E-01  2.499990000000E-01  2.500050000000E-01
      2 T   8 O    -4.999970000000E-01  4.999950000000E-01 -4.999880000000E-01
      3 T   5 B     2.497810000000E-01  2.497770000000E-01 -4.163920000000E-01
      4 T   7 N    -4.999350000000E-01 -4.999270000000E-01 -1.672310000000E-01
      5 T   5 B     2.497760000000E-01  2.497770000000E-01 -8.316500000000E-02
      6 T   7 N    -4.999230000000E-01 -4.999280000000E-01  1.670850000000E-01
      7 T   5 B     2.497850000000E-01 -4.163980000000E-01  2.497810000000E-01
      8 T   7 N    -4.999330000000E-01 -1.672290000000E-01 -4.999300000000E-01
      9 T   5 B     2.354100000000E-01 -4.118010000000E-01 -4.118070000000E-01
     10 T   7 N     4.997150000000E-01 -1.665690000000E-01 -1.665740000000E-01
     11 T   5 B     2.497740000000E-01 -4.163910000000E-01 -8.316200000000E-02
     12 T   7 N    -4.999240000000E-01 -1.672350000000E-01  1.670870000000E-01
     13 T   5 B     2.497840000000E-01 -8.317200000000E-02  2.497790000000E-01
     14 T   7 N    -4.999320000000E-01  1.670930000000E-01 -4.999290000000E-01
     15 T   5 B     2.497770000000E-01 -8.316700000000E-02 -4.163880000000E-01
     16 T   7 N    -4.999340000000E-01  1.670950000000E-01 -1.672360000000E-01
     17 T   5 B     2.494470000000E-01 -8.315000000000E-02 -8.314600000000E-02
     18 T   7 N    -4.998940000000E-01  1.666320000000E-01  1.666290000000E-01
     19 T   5 B    -4.163910000000E-01  2.497750000000E-01  2.497830000000E-01
     20 T   7 N    -1.672340000000E-01 -4.999260000000E-01 -4.999290000000E-01
     21 T   5 B    -4.118070000000E-01  2.354030000000E-01 -4.117950000000E-01
     22 T   7 N    -1.665750000000E-01  4.997210000000E-01 -1.665760000000E-01
     23 T   5 B    -4.163920000000E-01  2.497750000000E-01 -8.316200000000E-02
     24 T   7 N    -1.672320000000E-01 -4.999300000000E-01  1.670900000000E-01
     25 T   5 B    -4.117860000000E-01 -4.117970000000E-01  2.353820000000E-01
     26 T   7 N    -1.665730000000E-01 -1.665700000000E-01  4.997150000000E-01
     27 T   5 B    -4.118040000000E-01 -4.117970000000E-01 -4.117930000000E-01
     28 T   7 N    -1.665750000000E-01 -1.665690000000E-01 -1.665760000000E-01
     29 T   6 C    -4.161320000000E-01 -4.161320000000E-01 -8.387000000000E-02
     30 T   7 N    -1.666700000000E-01 -1.666680000000E-01  1.666670000000E-01
     31 T   5 B    -4.163870000000E-01 -8.316900000000E-02  2.497800000000E-01
     32 T   7 N    -1.672390000000E-01  1.670920000000E-01 -4.999280000000E-01
     33 T   5 B    -4.161290000000E-01 -8.387500000000E-02 -4.161270000000E-01
     34 T   7 N    -1.666730000000E-01  1.666720000000E-01 -1.666700000000E-01
     35 T   5 B    -4.161360000000E-01 -8.386700000000E-02 -8.386400000000E-02
     36 T   7 N    -1.666710000000E-01  1.666710000000E-01  1.666670000000E-01
     37 T   5 B    -8.316600000000E-02  2.497740000000E-01  2.497830000000E-01
     38 T   7 N     1.670960000000E-01 -4.999270000000E-01 -4.999330000000E-01
     39 T   5 B    -8.316800000000E-02  2.497760000000E-01 -4.163880000000E-01
     40 T   7 N     1.670820000000E-01 -4.999230000000E-01 -1.672370000000E-01
     41 T   5 B    -8.314900000000E-02  2.494470000000E-01 -8.314700000000E-02
     42 T   7 N     1.666300000000E-01 -4.998900000000E-01  1.666290000000E-01
     43 T   5 B    -8.316300000000E-02 -4.163940000000E-01  2.497810000000E-01
     44 T   7 N     1.670980000000E-01 -1.672370000000E-01 -4.999340000000E-01
     45 T   5 B    -8.386900000000E-02 -4.161330000000E-01 -4.161300000000E-01
     46 T   7 N     1.666660000000E-01 -1.666650000000E-01 -1.666720000000E-01
     47 T   5 B    -8.386500000000E-02 -4.161370000000E-01 -8.386400000000E-02
     48 T   7 N     1.666690000000E-01 -1.666680000000E-01  1.666660000000E-01
     49 T   5 B    -8.314600000000E-02 -8.315200000000E-02  2.494500000000E-01
     50 T   7 N     1.666270000000E-01  1.666330000000E-01 -4.998940000000E-01
     51 T   5 B    -8.386400000000E-02 -8.386800000000E-02 -4.161340000000E-01
     52 T   7 N     1.666650000000E-01  1.666720000000E-01 -1.666730000000E-01
     53 T   5 B    -8.314900000000E-02 -8.315000000000E-02 -8.314600000000E-02
     54 T   7 N     1.666310000000E-01  1.666320000000E-01  1.666300000000E-01

 T = ATOM BELONGING TO THE ASYMMETRIC UNIT

 ****    1 SYMMOPS - TRANSLATORS IN FRACTIONAL UNITS
 **** MATRICES AND TRANSLATORS IN THE CRYSTALLOGRAPHIC REFERENCE FRAME
   V INV                    ROTATION MATRICES                   TRANSLATORS
   1   1  1.00  0.00  0.00  0.00  1.00  0.00  0.00  0.00  1.00  0.00  0.00  0.00

 DIRECT LATTICE VECTORS CARTESIAN COMPONENTS (ANGSTROM)
          X                    Y                    Z
   0.658150725753E+01   0.379978903936E+01   0.000000000000E+00
   0.000000000000E+00   0.759952000000E+01   0.000000000000E+00
   0.219403327392E+01   0.379976357845E+01   0.620507234873E+01


 CARTESIAN COORDINATES - PRIMITIVE CELL
 *******************************************************************************
 *      ATOM          X(ANGSTROM)         Y(ANGSTROM)         Z(ANGSTROM)
 *******************************************************************************
    1     5 B    -4.387591409981E+00  1.913757988165E-06  1.551299112545E+00
    2     8 O     2.193783064725E+00 -3.799728270617E+00 -3.102461713498E+00
    3     5 B     7.303575612980E-01  1.265109257121E+00 -2.583742485433E+00
    4     7 N     2.924271048307E+00 -2.534501992061E+00 -1.037680453951E+00
    5     5 B     1.461435779532E+00  2.531274076133E+00 -5.160448418823E-01
    6     7 N    -2.923656803134E+00  2.535588727022E+00  1.036774513388E+00
    7     5 B     2.191989615517E+00 -1.266185877373E+00  1.549909176339E+00
    8     7 N     2.194331535120E+00 -1.270326830310E+00 -3.102101819301E+00
    9     5 B     6.458343630609E-01 -3.799750837716E+00 -2.555292228714E+00
   10     7 N     2.923409000628E+00  2.531460673380E-05 -1.033603721418E+00
   11     5 B     1.461429198617E+00 -2.531279163514E+00 -5.160262266652E-01
   12     7 N    -2.923658996575E+00 -2.535620365880E+00  1.036786923533E+00
   13     5 B     2.191978645943E+00  1.266160374830E+00  1.549896766194E+00
   14     7 N     2.194340310660E+00  1.270367494682E+00 -3.102095614229E+00
   15     5 B     7.303400114021E-01 -1.265105329861E+00 -2.583717665144E+00
   16     7 N     2.924266659648E+00  2.534529838351E+00 -1.037711479312E+00
   17     5 B     1.459312150276E+00  1.074600727150E-05 -5.159269455076E-01
   18     7 N    -2.924466418597E+00 -1.772008796431E-05  1.033945000397E+00
   19     5 B    -2.192448175211E+00  1.265088496029E+00  1.549921586483E+00
   20     7 N    -3.479371381662E-03 -2.534499983287E+00  3.102976734503E+00
   21     5 B     2.967704566295E+00  2.459235478199E+00 -2.555217767846E+00
   22     7 N    -1.461787858061E+00  2.531740456844E+00 -1.033616131562E+00
   23     5 B    -2.922947165105E+00 -2.758838885390E-05 -5.160262266652E-01
   24     7 N    -7.340376019518E-01  3.799748142094E+00  1.036805538750E+00
   25     5 B    -2.193736607468E+00 -3.799763516179E+00  1.460562339589E+00
   26     7 N     8.992907005047E-05  4.550553678767E-06  3.100767728746E+00
   27     5 B     2.967728698883E+00 -2.459154866906E+00 -2.555205357701E+00
   28     7 N    -1.461787858061E+00 -2.531743723956E+00 -1.033616131562E+00
   29     6 C    -2.922789348776E+00  2.537216559508E+00 -5.204194178881E-01
   30     7 N    -7.312668709479E-01 -1.266612442220E+00  1.034180793146E+00
   31     5 B    -2.192428431282E+00 -1.265122290986E+00  1.549902971266E+00
   32     7 N    -3.510084884677E-03  2.534501448891E+00  3.102982939575E+00
   33     5 B     2.929754739785E+00 -7.332410741836E-06 -2.582098141261E+00
   34     7 N    -1.462639084900E+00 -1.636738276886E-06 -1.034199408363E+00
   35     5 B     3.658704746928E+00  1.262547711094E+00 -5.203821874540E-01
   36     7 N    -7.312734524552E-01  1.266600155271E+00  1.034180793146E+00
   37     5 B     6.745806806507E-04  2.531265599149E+00  1.549921586483E+00
   38     7 N     2.873899971925E-03  2.535617109214E+00 -3.102120434518E+00
   39     5 B    -1.460939922457E+00 -1.910421082166E-05 -2.583717665144E+00
   40     7 N     7.327278529719E-01 -3.799759546255E+00 -1.037717684385E+00
   41     5 B    -7.296730315836E-01  1.263789864348E+00 -5.159331505800E-01
   42     7 N     1.462266124724E+00 -2.532614399857E+00  1.033945000397E+00
   43     5 B     6.899371358753E-04 -2.531287640371E+00  1.549909176339E+00
   44     7 N     2.884868953165E-03 -2.535614782172E+00 -3.102126639591E+00
   45     5 B    -1.464987498460E+00  2.537228818996E+00 -2.582116756478E+00
   46     7 N     7.312295747525E-01 -1.266592555914E+00 -1.034211818508E+00
   47     5 B    -7.359585126374E-01  3.799745865231E+00 -5.203821874540E-01
   48     7 N     1.462603982738E+00  1.636607805482E-06  1.034174588074E+00
   49     5 B     7.559774558382E-05 -1.521861350776E-06  1.547855297391E+00
   50     7 N    -1.272596341758E-04 -7.498660961097E-07 -3.101878436697E+00
   51     5 B    -1.464963367057E+00 -2.537232868313E+00 -2.582141576767E+00
   52     7 N     7.312207992120E-01  1.266601042773E+00 -1.034218023580E+00
   53     5 B    -7.296708375504E-01 -1.263783889328E+00 -5.159269455076E-01
   54     7 N     1.462274900264E+00  2.532640469135E+00  1.033951205469E+00

 *******************************************************************************
 LOCAL ATOMIC FUNCTIONS BASIS SET
 *******************************************************************************
   ATOM   X(AU)   Y(AU)   Z(AU)  N. TYPE  EXPONENT  S COEF   P COEF   D/F/G COEF
 *******************************************************************************
   1 B   -8.291   0.000   2.932
                                  1 S  
                                         8.393E+02-5.593E-03 0.000E+00 0.000E+00
                                         1.263E+02-4.157E-02 0.000E+00 0.000E+00
                                         2.862E+01-1.830E-01 0.000E+00 0.000E+00
                                         7.879E+00-4.654E-01 0.000E+00 0.000E+00
                                         2.409E+00-4.417E-01 0.000E+00 0.000E+00
                                  2 S  
                                         1.028E+00 1.000E+00 0.000E+00 0.000E+00
                                  3 S  
                                         2.245E-01 1.000E+00 0.000E+00 0.000E+00
                           4-     6 P  
                                         6.033E+00 0.000E+00-3.560E-02 0.000E+00
                                         1.250E+00 0.000E+00-1.990E-01 0.000E+00
                                         3.387E-01 0.000E+00-5.085E-01 0.000E+00
                           7-     9 P  
                                         2.288E-01 0.000E+00 1.000E+00 0.000E+00
                          10-    14 D  
                                         5.684E-01 0.000E+00 0.000E+00 1.000E+00
   2 O    4.146  -7.180  -5.863
                                 15 S  
                                         2.266E+03-5.343E-03 0.000E+00 0.000E+00
                                         3.409E+02-3.989E-02 0.000E+00 0.000E+00
                                         7.736E+01-1.785E-01 0.000E+00 0.000E+00
                                         2.148E+01-4.643E-01 0.000E+00 0.000E+00
                                         6.659E+00-4.431E-01 0.000E+00 0.000E+00
                                 16 S  
                                         8.479E-01 1.000E+00 0.000E+00 0.000E+00
                                 17 S  
                                         2.791E-01 1.000E+00 0.000E+00 0.000E+00
                          18-    20 P  
                                         1.772E+01 0.000E+00 4.339E-02 0.000E+00
                                         3.864E+00 0.000E+00 2.309E-01 0.000E+00
                                         1.048E+00 0.000E+00 5.138E-01 0.000E+00
                          21-    23 P  
                                         2.624E-01 0.000E+00 1.000E+00 0.000E+00
                          24-    28 D  
                                         4.790E-01 0.000E+00 0.000E+00 1.000E+00
   3 B    1.380   2.391  -4.883
   4 N    5.526  -4.790  -1.961
                                 43 S  
                                         1.713E+03-5.393E-03 0.000E+00 0.000E+00
                                         2.576E+02-4.022E-02 0.000E+00 0.000E+00
                                         5.846E+01-1.793E-01 0.000E+00 0.000E+00
                                         1.620E+01-4.638E-01 0.000E+00 0.000E+00
                                         5.005E+00-4.417E-01 0.000E+00 0.000E+00
                                 44 S  
                                         6.349E-01 1.000E+00 0.000E+00 0.000E+00
                                 45 S  
                                         2.108E-01 1.000E+00 0.000E+00 0.000E+00
                          46-    48 P  
                                         1.357E+01 0.000E+00-4.007E-02 0.000E+00
                                         2.926E+00 0.000E+00-2.181E-01 0.000E+00
                                         7.993E-01 0.000E+00-5.129E-01 0.000E+00
                          49-    51 P  
                                         2.392E-01 0.000E+00 1.000E+00 0.000E+00
                          52-    56 D  
                                         5.120E-01 0.000E+00 0.000E+00 1.000E+00
   5 B    2.762   4.783  -0.975
   6 N   -5.525   4.792   1.959
   7 B    4.142  -2.393   2.929
   8 N    4.147  -2.401  -5.862
   9 B    1.220  -7.180  -4.829
  10 N    5.524   0.000  -1.953
  11 B    2.762  -4.783  -0.975
  12 N   -5.525  -4.792   1.959
  13 B    4.142   2.393   2.929
  14 N    4.147   2.401  -5.862
  15 B    1.380  -2.391  -4.883
  16 N    5.526   4.790  -1.961
  17 B    2.758   0.000  -0.975
  18 N   -5.526  -0.000   1.954
  19 B   -4.143   2.391   2.929
  20 N   -0.007  -4.790   5.864
  21 B    5.608   4.647  -4.829
  22 N   -2.762   4.784  -1.953
  23 B   -5.524  -0.000  -0.975
  24 N   -1.387   7.180   1.959
  25 B   -4.146  -7.181   2.760
  26 N    0.000   0.000   5.860
  27 B    5.608  -4.647  -4.829
  28 N   -2.762  -4.784  -1.953
  29 C   -5.523   4.795  -0.983
                                393 S  
                                         1.238E+03 5.457E-03 0.000E+00 0.000E+00
                                         1.863E+02 4.064E-02 0.000E+00 0.000E+00
                                         4.225E+01 1.803E-01 0.000E+00 0.000E+00
                                         1.168E+01 4.632E-01 0.000E+00 0.000E+00
                                         3.593E+00 4.409E-01 0.000E+00 0.000E+00
                                394 S  
                                         4.687E-01 1.000E+00 0.000E+00 0.000E+00
                                395 S  
                                         2.355E-01 1.000E+00 0.000E+00 0.000E+00
                         396-   398 P  
                                         9.468E+00 0.000E+00 3.839E-02 0.000E+00
                                         2.010E+00 0.000E+00 2.112E-01 0.000E+00
                                         5.477E-01 0.000E+00 5.133E-01 0.000E+00
                         399-   401 P  
                                         2.105E-01 0.000E+00 1.000E+00 0.000E+00
                         402-   406 D  
                                         5.286E-01 0.000E+00 0.000E+00 1.000E+00
  30 N   -1.382  -2.394   1.954
  31 B   -4.143  -2.391   2.929
  32 N   -0.007   4.790   5.864
  33 B    5.536  -0.000  -4.879
  34 N   -2.764  -0.000  -1.954
  35 B    6.914   2.386  -0.983
  36 N   -1.382   2.394   1.954
  37 B    0.001   4.783   2.929
  38 N    0.005   4.792  -5.862
  39 B   -2.761  -0.000  -4.883
  40 N    1.385  -7.181  -1.961
  41 B   -1.379   2.388  -0.975
  42 N    2.763  -4.786   1.954
  43 B    0.001  -4.783   2.929
  44 N    0.005  -4.792  -5.862
  45 B   -2.768   4.795  -4.879
  46 N    1.382  -2.394  -1.954
  47 B   -1.391   7.180  -0.983
  48 N    2.764   0.000   1.954
  49 B    0.000  -0.000   2.925
  50 N   -0.000  -0.000  -5.862
  51 B   -2.768  -4.795  -4.880
  52 N    1.382   2.394  -1.954
  53 B   -1.379  -2.388  -0.975
  54 N    2.763   4.786   1.954
 INFORMATION **** SET_MPP **** PCRYSTAL CALCULATION
 INFORMATION **** READM2 **** NEW DEFAULT: FOCK/KS MATRIX MIXING SET TO 30 %
 INFORMATION **** READM2 **** NEW DEFAULT: FULL DIRECT SCF MODE
 INFORMATION **** READM2 **** NEW DEFAULT: COULOMB BIPOLAR BUFFER SET TO 32 Mb
 INFORMATION **** READM2 **** NEW DEFAULT: EXCHANGE BIPOLAR BUFFER SET TO 32 Mb

 *******************************************************************************
 NEW DEFAULT: DFT INTEGRATION GRID INCREASED TO XLGRID
 NEW DEFAULT: DIIS ACCELERATOR ACTIVE
 USE KEYWORD NODIIS TO TURN IT OFF
 *******************************************************************************

 WARNING **** RDDFTP **** HSE06-HJS ACTIVE
 RANGE SEPARATION - OMEGA:   0.110000000000000     
 INFORMATION **** DFTD3_INPUT **** PERFORM LATEST DISPERSION CORRECTION DFT-D3(BJ) WITH AUTOMATIC PARAMETER SETUP
 PLEASE CITE:
 (1) DFT-D3 Reference
  S. Grimme, J. Antony, S. Ehrlich, and H. Krieg, J. Chem. Phys. 132 (2010), 154104
 (2) BJ-Damping Reference
  S. Grimme, S. Ehrlich, and L. Goerigk, J. Comput. Chem. 32 (2011), 1456-1465
 (3) General DFT-D Review
  S. Grimme, A. Hansen, J. G. Brandenburg, and C. Bannwarth,
  Chem. Rev. 116 (2016), 5105-5154

 INFORMATION **** TOLINTEG **** COULOMB AND EXCHANGE SERIES TOLERANCES MODIFIED
 INFORMATION **** TOLDEE **** SCF TOL ON TOTAL ENERGY SET TO           7
 INFORMATION **** READM2 **** FULL DIRECT SCF (MONO AND BIEL INT) SELECTED
 INFORMATION **** BIPOSIZE **** COULOMB BIPOLAR BUFFER SET TO   110000000
 INFORMATION **** EXCHSIZE **** EXCHANGE BIPOLAR BUFFER SIZE SET TO   110000000
 INFORMATION **** MAXCYCLE **** MAX NUMBER OF SCF CYCLES SET TO         800
 INFORMATION **** DIIS **** DIIS FOR SCF ACTIVE
 INFORMATION **** DIIS **** LEVEL SHIFTER DISABLED
 INFORMATION **** PPAN ****  MULLIKEN POPULATION ANALYSIS AT THE END OF SCF
 *******************************************************************************
 N. OF ATOMS PER CELL        54  COULOMB OVERLAP TOL         (T1) 10**   -7
 NUMBER OF SHELLS           324  COULOMB PENETRATION TOL     (T2) 10**   -7
 NUMBER OF AO               756  EXCHANGE OVERLAP TOL        (T3) 10**   -7
 N. OF ELECTRONS PER CELL   326  EXCHANGE PSEUDO OVP (F(G))  (T4) 10**   -9
 CORE ELECTRONS PER CELL    108  EXCHANGE PSEUDO OVP (P(G))  (T5) 10**  -30
 N. OF SYMMETRY OPERATORS     1  POLE ORDER IN MONO ZONE                  4
 *******************************************************************************
 TYPE OF CALCULATION :  UNRESTRICTED OPEN SHELL
 KOHN-SHAM HAMILTONIAN

 (EXCHANGE)[CORRELATION] FUNCTIONAL:(HSE06 SR/GGA)[PERDEW-BURKE-ERNZERHOF]

 RANGE-SEPARATED HYBRID FUNCTIONAL 
 OMEGA (SHORT-RANGE)[LONG-RANGE]:(    0.1100)[    0.0000]

 HYBRID EXCHANGE - PERCENTAGE OF FOCK EXCHANGE    25.0000

 SPIN POLARIZED DFT SELECTED

 CAPPA:IS1  6;IS2  6;IS3  6; K PTS MONK NET 112; SYMMOPS:K SPACE   2;G SPACE   1

 *******************************************************************************
 MAX NUMBER OF SCF CYCLES     800  CONVERGENCE ON DELTAP        10**-17
 WEIGHT OF F(I) IN F(I+1)      30% CONVERGENCE ON ENERGY        10**- 7
 SHRINK. FACT.(MONKH.)    6  6  6  NUMBER OF K POINTS IN THE IBZ    112
 SHRINKING FACTOR(GILAT NET)   12  NUMBER OF K POINTS(GILAT NET)    868
 *******************************************************************************
 *** K POINTS COORDINATES (OBLIQUE COORDINATES IN UNITS OF IS =  6)
   1-R(  0  0  0)   2-C(  1  0  0)   3-C(  2  0  0)   4-R(  3  0  0)
   5-C(  0  1  0)   6-C(  1  1  0)   7-C(  2  1  0)   8-C(  3  1  0)
   9-C(  4  1  0)  10-C(  5  1  0)  11-C(  0  2  0)  12-C(  1  2  0)
  13-C(  2  2  0)  14-C(  3  2  0)  15-C(  4  2  0)  16-C(  5  2  0)
  17-R(  0  3  0)  18-C(  1  3  0)  19-C(  2  3  0)  20-R(  3  3  0)
  21-C(  0  0  1)  22-C(  1  0  1)  23-C(  2  0  1)  24-C(  3  0  1)
  25-C(  4  0  1)  26-C(  5  0  1)  27-C(  0  1  1)  28-C(  1  1  1)
  29-C(  2  1  1)  30-C(  3  1  1)  31-C(  4  1  1)  32-C(  5  1  1)
  33-C(  0  2  1)  34-C(  1  2  1)  35-C(  2  2  1)  36-C(  3  2  1)
  37-C(  4  2  1)  38-C(  5  2  1)  39-C(  0  3  1)  40-C(  1  3  1)
  41-C(  2  3  1)  42-C(  3  3  1)  43-C(  4  3  1)  44-C(  5  3  1)
  45-C(  0  4  1)  46-C(  1  4  1)  47-C(  2  4  1)  48-C(  3  4  1)
  49-C(  4  4  1)  50-C(  5  4  1)  51-C(  0  5  1)  52-C(  1  5  1)
  53-C(  2  5  1)  54-C(  3  5  1)  55-C(  4  5  1)  56-C(  5  5  1)
  57-C(  0  0  2)  58-C(  1  0  2)  59-C(  2  0  2)  60-C(  3  0  2)
  61-C(  4  0  2)  62-C(  5  0  2)  63-C(  0  1  2)  64-C(  1  1  2)
  65-C(  2  1  2)  66-C(  3  1  2)  67-C(  4  1  2)  68-C(  5  1  2)
  69-C(  0  2  2)  70-C(  1  2  2)  71-C(  2  2  2)  72-C(  3  2  2)
  73-C(  4  2  2)  74-C(  5  2  2)  75-C(  0  3  2)  76-C(  1  3  2)
  77-C(  2  3  2)  78-C(  3  3  2)  79-C(  4  3  2)  80-C(  5  3  2)
  81-C(  0  4  2)  82-C(  1  4  2)  83-C(  2  4  2)  84-C(  3  4  2)
  85-C(  4  4  2)  86-C(  5  4  2)  87-C(  0  5  2)  88-C(  1  5  2)
  89-C(  2  5  2)  90-C(  3  5  2)  91-C(  4  5  2)  92-C(  5  5  2)
  93-R(  0  0  3)  94-C(  1  0  3)  95-C(  2  0  3)  96-R(  3  0  3)
  97-C(  0  1  3)  98-C(  1  1  3)  99-C(  2  1  3) 100-C(  3  1  3)
 101-C(  4  1  3) 102-C(  5  1  3) 103-C(  0  2  3) 104-C(  1  2  3)
 105-C(  2  2  3) 106-C(  3  2  3) 107-C(  4  2  3) 108-C(  5  2  3)
 109-R(  0  3  3) 110-C(  1  3  3) 111-C(  2  3  3) 112-R(  3  3  3)

 DIRECT LATTICE VECTORS COMPON. (A.U.)     RECIP. LATTICE VECTORS COMPON. (A.U.) 
        X            Y            Z              X            Y            Z
   12.4372463    7.1805607    0.0000000      0.5051910    0.0000000   -0.1786290
    0.0000000   14.3610115    0.0000000     -0.2525974    0.4375169   -0.1786045
    4.1461220    7.1805125   11.7258874      0.0000000    0.0000000    0.5358388

 DISK SPACE FOR EIGENVECTORS (FTN 10)   123451776 REALS

 SYMMETRY ADAPTION OF THE BLOCH FUNCTIONS DISABLED
 TTTTTTTTTTTTTTTTTTTTTTTTTTTTTT gordsh1     TELAPSE        0.79 TCPU        0.61

 MATRIX SIZE: P(G) 7525570, F(G)  623376, P(G) IRR 3779027, F(G) IRR  624240
 MAX G-VECTOR INDEX FOR 1- AND 2-ELECTRON INTEGRALS 139

 TTTTTTTTTTTTTTTTTTTTTTTTTTTTTT INPUT       TELAPSE        1.04 TCPU        0.86

 NEIGHBORS OF THE NON-EQUIVALENT ATOMS

 N = NUMBER OF NEIGHBORS AT DISTANCE R
    ATOM  N     R/ANG      R/AU   NEIGHBORS (ATOM LABELS AND CELL INDICES)
   1 B    1     1.5519     2.9327   50 N   -1 0 1
   1 B    1     1.5519     2.9327   18 N    0 0 0
   1 B    1     1.5519     2.9328   42 N   -1 1 0
   1 B    1     1.5520     2.9328   54 N   -1 0 0
   1 B    1     2.5335     4.7877    7 B   -1 1 0
   1 B    1     2.5336     4.7878   23 B    0 0 0

   2 O    1     1.6418     3.1026   21 B    0-1 0
   2 O    1     1.6418     3.1026    9 B    0 0 0
   2 O    1     1.6418     3.1026   27 B    0 0 0
   2 O    1     1.6420     3.1030   25 B    1 0-1
   2 O    1     2.5294     4.7798   16 N    0-1 0
   2 O    1     2.5294     4.7798    4 N    0 0 0

   3 B    1     1.5495     2.9282   52 N    0 0 0
   3 B    1     1.5500     2.9291   50 N    0 0 0
   3 B    1     1.5530     2.9348   14 N    0 0 0
   3 B    1     1.5531     2.9349   38 N    0 0 0
   3 B    1     2.5302     4.7814   15 B    0 0 0
   3 B    1     2.5303     4.7815   39 B    0 0 0

   4 N    1     1.5200     2.8724   27 B    0 0 0
   4 N    1     1.5531     2.9349   11 B    0 0 0
   4 N    1     1.5531     2.9350   23 B    1-1 0
   4 N    1     1.5572     2.9427   29 C    1-1 0
   4 N    1     2.5284     4.7779   20 N    1 0-1
   4 N    1     2.5284     4.7780    8 N    0 0 0

   5 B    1     1.5496     2.9282   52 N    0 0 0
   5 B    1     1.5500     2.9291   54 N    0 0 0
   5 B    1     1.5531     2.9349   16 N    0 0 0
   5 B    1     1.5531     2.9350   40 N    0 1 0
   5 B    1     2.5302     4.7814   37 B    0 0 0
   5 B    1     2.5303     4.7815   13 B    0 0 0

   6 N    1     1.5200     2.8724   25 B    0 1 0
   6 N    1     1.5531     2.9349    7 B   -1 1 0
   6 N    1     1.5531     2.9350   19 B    0 0 0
   6 N    1     1.5572     2.9427   29 C    0 0 0
   6 N    1     2.5283     4.7778   12 N    0 1 0
   6 N    1     2.5283     4.7779   24 N    0 0 0

   7 B    1     1.5496     2.9283   48 N    0 0 0
   7 B    1     1.5500     2.9291   42 N    0 0 0
   7 B    1     1.5531     2.9348   38 N    0-1 1
   7 B    1     1.5531     2.9349    6 N    1-1 0
   7 B    1     2.5303     4.7815   11 B    0 0 0
   7 B    1     2.5303     4.7815   43 B    0 0 0

   8 N    1     1.5200     2.8725   27 B    0 0 0
   8 N    1     1.5531     2.9349   15 B    0 0 0
   8 N    1     1.5531     2.9349   31 B    1 0-1
   8 N    1     1.5572     2.9427   33 B    0 0 0
   8 N    1     2.5284     4.7779   20 N    1 0-1
   8 N    1     2.5284     4.7780    4 N    0 0 0

   9 B    1     1.5200     2.8724   44 N    0 0 0
   9 B    1     1.5200     2.8724   38 N    0-1 0
   9 B    1     1.5201     2.8725   40 N    0 0 0
   9 B    1     1.6418     3.1026    2 O    0 0 0
   9 B    1     2.4597     4.6482   51 B    0 0 0
   9 B    1     2.4597     4.6482   47 B    0-1 0

  10 N    1     1.5485     2.9263   33 B    0 0 0
  10 N    1     1.5486     2.9263   35 B    0 0 0
  10 N    1     1.5486     2.9264   29 C    1-1 0
  10 N    1     1.5529     2.9346   17 B    0 0 0
  10 N    1     2.5317     4.7843   48 N    0 0 0
  10 N    1     2.5318     4.7844   52 N    0 0 0

  11 B    1     1.5496     2.9282   46 N    0 0 0
  11 B    1     1.5500     2.9290   42 N    0 0 0
  11 B    1     1.5531     2.9349    4 N    0 0 0
  11 B    1     1.5531     2.9350   40 N    0 0 0
  11 B    1     2.5302     4.7814   43 B    0 0 0
  11 B    1     2.5303     4.7815    7 B    0 0 0

  12 N    1     1.5200     2.8724   25 B    0 0 0
  12 N    1     1.5531     2.9349   13 B   -1 0 0
  12 N    1     1.5531     2.9350   31 B    0 0 0
  12 N    1     1.5572     2.9426   35 B   -1 0 0
  12 N    1     2.5283     4.7778    6 N    0-1 0
  12 N    1     2.5283     4.7779   24 N    0-1 0

  13 B    1     1.5496     2.9282   48 N    0 0 0
  13 B    1     1.5500     2.9292   54 N    0 0 0
  13 B    1     1.5531     2.9349   44 N    0 0 1
  13 B    1     1.5531     2.9349   12 N    1 0 0
  13 B    1     2.5303     4.7815   37 B    0 0 0
  13 B    1     2.5303     4.7815    5 B    0 0 0

  14 N    1     1.5201     2.8725   21 B    0 0 0
  14 N    1     1.5530     2.9348    3 B    0 0 0
  14 N    1     1.5531     2.9349   19 B    1 0-1
  14 N    1     1.5573     2.9428   33 B    0 0 0
  14 N    1     2.5283     4.7779   32 N    1 0-1
  14 N    1     2.5284     4.7779   16 N    0 0 0

  15 B    1     1.5495     2.9281   46 N    0 0 0
  15 B    1     1.5500     2.9291   50 N    0 0 0
  15 B    1     1.5531     2.9349    8 N    0 0 0
  15 B    1     1.5531     2.9349   44 N    0 0 0
  15 B    1     2.5302     4.7814    3 B    0 0 0
  15 B    1     2.5302     4.7815   39 B    0 0 0

  16 N    1     1.5200     2.8724   21 B    0 0 0
  16 N    1     1.5531     2.9349    5 B    0 0 0
  16 N    1     1.5531     2.9350   23 B    1 0 0
  16 N    1     1.5572     2.9427   35 B    0 0 0
  16 N    1     2.5283     4.7778   32 N    1 0-1
  16 N    1     2.5284     4.7779   14 N    0 0 0

  17 B    1     1.5501     2.9293   48 N    0 0 0
  17 B    1     1.5502     2.9294   52 N    0 0 0
  17 B    1     1.5502     2.9294   46 N    0 0 0
  17 B    1     1.5529     2.9346   10 N    0 0 0
  17 B    1     2.5276     4.7764   49 B    0 0 0
  17 B    1     2.5276     4.7765   41 B    0 0 0

  18 N    1     1.5500     2.9290   23 B    0 0 0
  18 N    1     1.5500     2.9291   19 B    0 0 0
  18 N    1     1.5500     2.9291   31 B    0 0 0
  18 N    1     1.5519     2.9327    1 B    0 0 0
  18 N    1     2.5326     4.7860   34 N    0 0 0
  18 N    1     2.5327     4.7860   30 N    0 0 0

  19 B    1     1.5495     2.9282   36 N    0 0 0
  19 B    1     1.5500     2.9291   18 N    0 0 0
  19 B    1     1.5531     2.9349   14 N   -1 0 1
  19 B    1     1.5531     2.9350    6 N    0 0 0
  19 B    1     2.5302     4.7814   31 B    0 0 0
  19 B    1     2.5303     4.7815   23 B    0 0 0

  20 N    1     1.5201     2.8725   27 B   -1 0 1
  20 N    1     1.5531     2.9349   43 B    0 0 0
  20 N    1     1.5531     2.9350   39 B    0-1 1
  20 N    1     1.5572     2.9427   45 B    0-1 1
  20 N    1     2.5284     4.7779    4 N   -1 0 1
  20 N    1     2.5284     4.7779    8 N   -1 0 1

  21 B    1     1.5200     2.8724   16 N    0 0 0
  21 B    1     1.5200     2.8725   32 N    1 0-1
  21 B    1     1.5201     2.8725   14 N    0 0 0
  21 B    1     1.6418     3.1026    2 O    0 1 0
  21 B    1     2.4597     4.6481   33 B    0 0 0
  21 B    1     2.4597     4.6481   35 B    0 0 0

  22 N    1     1.5485     2.9263   45 B    0 0 0
  22 N    1     1.5485     2.9263   29 C    0 0 0
  22 N    1     1.5486     2.9264   47 B    0 0 0
  22 N    1     1.5530     2.9347   41 B    0 0 0
  22 N    1     2.5317     4.7843   34 N    0 0 0
  22 N    1     2.5318     4.7844   52 N    0 0 0

  23 B    1     1.5495     2.9282   34 N    0 0 0
  23 B    1     1.5500     2.9290   18 N    0 0 0
  23 B    1     1.5531     2.9350   16 N   -1 0 0
  23 B    1     1.5531     2.9350    4 N   -1 1 0
  23 B    1     2.5303     4.7815   31 B    0 0 0
  23 B    1     2.5303     4.7815   19 B    0 0 0

  24 N    1     1.5200     2.8723   25 B    0 1 0
  24 N    1     1.5531     2.9349   37 B    0 0 0
  24 N    1     1.5531     2.9350   43 B    0 1 0
  24 N    1     1.5572     2.9427   47 B    0 0 0
  24 N    1     2.5283     4.7779   12 N    0 1 0
  24 N    1     2.5283     4.7779    6 N    0 0 0

  25 B    1     1.5200     2.8723   24 N    0-1 0
  25 B    1     1.5200     2.8724   12 N    0 0 0
  25 B    1     1.5200     2.8724    6 N    0-1 0
  25 B    1     1.6420     3.1030    2 O   -1 0 1
  25 B    1     2.4595     4.6478   47 B    0-1 0
  25 B    1     2.4596     4.6480   35 B   -1 0 0

  26 N    1     1.5485     2.9263   33 B   -1 0 1
  26 N    1     1.5486     2.9264   51 B    0 0 1
  26 N    1     1.5486     2.9264   45 B    0-1 1
  26 N    1     1.5529     2.9346   49 B    0 0 0
  26 N    1     2.5317     4.7843   48 N    0 0 0
  26 N    1     2.5318     4.7844   36 N    0 0 0

  27 B    1     1.5200     2.8724    4 N    0 0 0
  27 B    1     1.5200     2.8725    8 N    0 0 0
  27 B    1     1.5201     2.8725   20 N    1 0-1
  27 B    1     1.6418     3.1026    2 O    0 0 0
  27 B    1     2.4596     4.6479   33 B    0 0 0
  27 B    1     2.4596     4.6480   29 C    1-1 0

  28 N    1     1.5485     2.9263   51 B    0 0 0
  28 N    1     1.5485     2.9263   35 B   -1 0 0
  28 N    1     1.5486     2.9264   47 B    0-1 0
  28 N    1     1.5530     2.9347   53 B    0 0 0
  28 N    1     2.5317     4.7843   34 N    0 0 0
  28 N    1     2.5318     4.7844   46 N    0 0 0

  29 C    1     1.5485     2.9263   22 N    0 0 0
  29 C    1     1.5486     2.9264   10 N   -1 1 0
  29 C    1     1.5572     2.9427    6 N    0 0 0
  29 C    1     1.5572     2.9427    4 N   -1 1 0
  29 C    1     2.4596     4.6480   27 B   -1 1 0
  29 C    1     2.4596     4.6480   25 B    0 1 0

  30 N    1     1.5495     2.9281   31 B    0 0 0
  30 N    1     1.5496     2.9282   43 B    0 0 0
  30 N    1     1.5501     2.9293   53 B    0 0 0
  30 N    1     1.5502     2.9294   49 B    0 0 0
  30 N    1     2.5318     4.7844   26 N    0 0 0
  30 N    1     2.5318     4.7844   28 N    0 0 0

  31 B    1     1.5495     2.9281   30 N    0 0 0
  31 B    1     1.5500     2.9291   18 N    0 0 0
  31 B    1     1.5531     2.9349    8 N   -1 0 1
  31 B    1     1.5531     2.9350   12 N    0 0 0
  31 B    1     2.5302     4.7814   19 B    0 0 0
  31 B    1     2.5303     4.7815   23 B    0 0 0

  32 N    1     1.5200     2.8725   21 B   -1 0 1
  32 N    1     1.5531     2.9349   37 B    0 0 0
  32 N    1     1.5531     2.9349   39 B    0 0 1
  32 N    1     1.5572     2.9427   51 B    0 0 1
  32 N    1     2.5283     4.7778   16 N   -1 0 1
  32 N    1     2.5283     4.7779   14 N   -1 0 1

  33 B    1     1.5485     2.9263   10 N    0 0 0
  33 B    1     1.5485     2.9263   26 N    1 0-1
  33 B    1     1.5572     2.9427    8 N    0 0 0
  33 B    1     1.5573     2.9428   14 N    0 0 0
  33 B    1     2.4596     4.6479   27 B    0 0 0
  33 B    1     2.4597     4.6481   21 B    0 0 0

  34 N    1     1.5495     2.9282   23 B    0 0 0
  34 N    1     1.5495     2.9282   39 B    0 0 0
  34 N    1     1.5502     2.9294   53 B    0 0 0
  34 N    1     1.5502     2.9294   41 B    0 0 0
  34 N    1     2.5317     4.7843   28 N    0 0 0
  34 N    1     2.5317     4.7843   22 N    0 0 0

  35 B    1     1.5485     2.9263   28 N    1 0 0
  35 B    1     1.5486     2.9263   10 N    0 0 0
  35 B    1     1.5572     2.9426   12 N    1 0 0
  35 B    1     1.5572     2.9427   16 N    0 0 0
  35 B    1     2.4596     4.6480   25 B    1 0 0
  35 B    1     2.4597     4.6481   21 B    0 0 0

  36 N    1     1.5495     2.9282   19 B    0 0 0
  36 N    1     1.5496     2.9282   37 B    0 0 0
  36 N    1     1.5501     2.9293   41 B    0 0 0
  36 N    1     1.5502     2.9294   49 B    0 0 0
  36 N    1     2.5318     4.7844   26 N    0 0 0
  36 N    1     2.5318     4.7844   22 N    0 0 0

  37 B    1     1.5496     2.9282   36 N    0 0 0
  37 B    1     1.5500     2.9291   54 N    0 0 0
  37 B    1     1.5531     2.9349   32 N    0 0 0
  37 B    1     1.5531     2.9349   24 N    0 0 0
  37 B    1     2.5302     4.7814    5 B    0 0 0
  37 B    1     2.5303     4.7815   13 B    0 0 0

  38 N    1     1.5200     2.8724    9 B    0 1 0
  38 N    1     1.5531     2.9348    7 B    0 1-1
  38 N    1     1.5531     2.9349    3 B    0 0 0
  38 N    1     1.5572     2.9428   45 B    0 0 0
  38 N    1     2.5283     4.7778   44 N    0 1 0
  38 N    1     2.5283     4.7779   40 N    0 1 0

  39 B    1     1.5495     2.9282   34 N    0 0 0
  39 B    1     1.5500     2.9291   50 N    0 0 0
  39 B    1     1.5531     2.9349   32 N    0 0-1
  39 B    1     1.5531     2.9350   20 N    0 1-1
  39 B    1     2.5302     4.7815   15 B    0 0 0
  39 B    1     2.5303     4.7815    3 B    0 0 0

  40 N    1     1.5201     2.8725    9 B    0 0 0
  40 N    1     1.5531     2.9350   11 B    0 0 0
  40 N    1     1.5531     2.9350    5 B    0-1 0
  40 N    1     1.5571     2.9426   47 B    0-1 0
  40 N    1     2.5283     4.7779   38 N    0-1 0
  40 N    1     2.5283     4.7779   44 N    0 0 0

  41 B    1     1.5501     2.9293   52 N    0 0 0
  41 B    1     1.5501     2.9293   36 N    0 0 0
  41 B    1     1.5502     2.9294   34 N    0 0 0
  41 B    1     1.5530     2.9347   22 N    0 0 0
  41 B    1     2.5276     4.7764   53 B    0 0 0
  41 B    1     2.5276     4.7765   17 B    0 0 0

  42 N    1     1.5500     2.9290   11 B    0 0 0
  42 N    1     1.5500     2.9290   43 B    0 0 0
  42 N    1     1.5500     2.9291    7 B    0 0 0
  42 N    1     1.5519     2.9328    1 B    1-1 0
  42 N    1     2.5326     4.7860   48 N    0 0 0
  42 N    1     2.5327     4.7860   30 N    0 0 0

  43 B    1     1.5496     2.9282   30 N    0 0 0
  43 B    1     1.5500     2.9290   42 N    0 0 0
  43 B    1     1.5531     2.9349   20 N    0 0 0
  43 B    1     1.5531     2.9350   24 N    0-1 0
  43 B    1     2.5302     4.7814   11 B    0 0 0
  43 B    1     2.5303     4.7815    7 B    0 0 0

  44 N    1     1.5200     2.8724    9 B    0 0 0
  44 N    1     1.5531     2.9349   13 B    0 0-1
  44 N    1     1.5531     2.9349   15 B    0 0 0
  44 N    1     1.5572     2.9427   51 B    0 0 0
  44 N    1     2.5283     4.7778   38 N    0-1 0
  44 N    1     2.5283     4.7779   40 N    0 0 0

  45 B    1     1.5485     2.9263   22 N    0 0 0
  45 B    1     1.5486     2.9264   26 N    0 1-1
  45 B    1     1.5572     2.9427   20 N    0 1-1
  45 B    1     1.5572     2.9428   38 N    0 0 0
  45 B    1     2.4597     4.6481   27 B   -1 1 0
  45 B    1     2.4597     4.6482    9 B    0 1 0

  46 N    1     1.5495     2.9281   15 B    0 0 0
  46 N    1     1.5496     2.9282   11 B    0 0 0
  46 N    1     1.5501     2.9293   53 B    0 0 0
  46 N    1     1.5502     2.9294   17 B    0 0 0
  46 N    1     2.5318     4.7844   28 N    0 0 0
  46 N    1     2.5318     4.7844   10 N    0 0 0

  47 B    1     1.5486     2.9264   22 N    0 0 0
  47 B    1     1.5486     2.9264   28 N    0 1 0
  47 B    1     1.5571     2.9426   40 N    0 1 0
  47 B    1     1.5572     2.9427   24 N    0 0 0
  47 B    1     2.4595     4.6478   25 B    0 1 0
  47 B    1     2.4597     4.6482    9 B    0 1 0

  48 N    1     1.5496     2.9282   13 B    0 0 0
  48 N    1     1.5496     2.9283    7 B    0 0 0
  48 N    1     1.5501     2.9293   17 B    0 0 0
  48 N    1     1.5501     2.9293   49 B    0 0 0
  48 N    1     2.5317     4.7843   10 N    0 0 0
  48 N    1     2.5317     4.7843   26 N    0 0 0

  49 B    1     1.5501     2.9293   48 N    0 0 0
  49 B    1     1.5502     2.9294   36 N    0 0 0
  49 B    1     1.5502     2.9294   30 N    0 0 0
  49 B    1     1.5529     2.9346   26 N    0 0 0
  49 B    1     2.5276     4.7764   17 B    0 0 0
  49 B    1     2.5276     4.7765   53 B    0 0 0

  50 N    1     1.5500     2.9291   39 B    0 0 0
  50 N    1     1.5500     2.9291   15 B    0 0 0
  50 N    1     1.5500     2.9291    3 B    0 0 0
  50 N    1     1.5519     2.9327    1 B    1 0-1
  50 N    1     2.5326     4.7860   34 N    0 0 0
  50 N    1     2.5327     4.7860   52 N    0 0 0

  51 B    1     1.5485     2.9263   28 N    0 0 0
  51 B    1     1.5486     2.9264   26 N    0 0-1
  51 B    1     1.5572     2.9427   32 N    0 0-1
  51 B    1     1.5572     2.9427   44 N    0 0 0
  51 B    1     2.4597     4.6482    9 B    0 0 0
  51 B    1     2.4597     4.6482   21 B   -1 0 0

  52 N    1     1.5495     2.9282    3 B    0 0 0
  52 N    1     1.5496     2.9282    5 B    0 0 0
  52 N    1     1.5501     2.9293   41 B    0 0 0
  52 N    1     1.5502     2.9294   17 B    0 0 0
  52 N    1     2.5318     4.7844   22 N    0 0 0
  52 N    1     2.5318     4.7844   10 N    0 0 0

  53 B    1     1.5501     2.9293   30 N    0 0 0
  53 B    1     1.5501     2.9293   46 N    0 0 0
  53 B    1     1.5502     2.9294   34 N    0 0 0
  53 B    1     1.5530     2.9347   28 N    0 0 0
  53 B    1     2.5276     4.7764   41 B    0 0 0
  53 B    1     2.5276     4.7765   17 B    0 0 0

  54 N    1     1.5500     2.9291    5 B    0 0 0
  54 N    1     1.5500     2.9291   37 B    0 0 0
  54 N    1     1.5500     2.9292   13 B    0 0 0
  54 N    1     1.5520     2.9328    1 B    1 0 0
  54 N    1     2.5326     4.7860   48 N    0 0 0
  54 N    1     2.5327     4.7861   36 N    0 0 0


 SYMMETRY ALLOWED INTERNAL DEGREE(S) OF FREEDOM: 159
 TTTTTTTTTTTTTTTTTTTTTTTTTTTTTT SYMM        TELAPSE        1.06 TCPU        0.87
 TTTTTTTTTTTTTTTTTTTTTTTTTTTTTT INT_SCREEN  TELAPSE        1.09 TCPU        0.90

 DFT PARAMETERS

     ATOM       ELECTRONS   NET CHARGE   R(ANGSTROM)
   1   5  B       5.0000      0.0000     0.89000000
   2   8  O       8.0000      0.0000     0.74000000
   4   7  N       7.0000      0.0000     0.74000000
  29   6  C       6.0000      0.0000     0.77000000

 SIZE OF GRID=    1302058
 TTTTTTTTTTTTTTTTTTTTTTTTTTTTTT MAKE_GRID2  TELAPSE        5.89 TCPU        5.71
 BECKE WEIGHT FUNCTION
 RADSAFE =     2.00
 TOLERANCES - DENSITY:10**- 6; POTENTIAL:10**- 9; GRID WGT:10**-14

 RADIAL INTEGRATION  - INTERVALS (POINTS,UPPER LIMIT):            1( 75,  4.0*R)

 ANGULAR INTEGRATION - INTERVALS (ACCURACY LEVEL [N. POINTS] UPPER LIMIT):
  1(  4[  86]   0.2)  2(  8[ 194]   0.5)  3( 12[ 350]   0.9)  4( 16[ 974]   3.5)
  5( 12[ 350]9999.0)
 TTTTTTTTTTTTTTTTTTTTTTTTTTTTTT INT_CALC    TELAPSE        5.96 TCPU        5.77
 EEEEEEEEEE INT_CALC TERMINATION  DATE 22 03 2023 TIME 16:53:24.8

 *******************************************************************************
 substitutionscBN_O_N_87                                                         
 CRYSTAL - SCF - TYPE OF CALCULATION :  UNRESTRICTED OPEN SHELL
 *******************************************************************************

 CAPPA:IS1  6;IS2  6;IS3  6; K PTS MONK NET 112; SYMMOPS:K SPACE   2;G SPACE   1

 TTTTTTTTTTTTTTTTTTTTTTTTTTTTTT SDIK        TELAPSE       13.22 TCPU       13.03

 AAAAAAAAAAAAAAAAAAAAAAAAAAAAAAAAAAAAAAAAAAAAAAAAAAAAAAAAAAAAAAAAAAAAAAAAAAAAAAA
         ATOMIC WAVEFUNCTION(S)


 NUCLEAR CHARGE  5.0  SYMMETRY SPECIES            S    P
 N. ELECTRONS    5.0  NUMBER OF PRIMITIVE GTOS    7    4
                      NUMBER OF CONTRACTED GTOS   3    2
                      NUMBER OF CLOSED SHELLS     2    0
                      OPEN SHELL OCCUPATION       0    1

  ZNUC SCFIT  TOTAL HF ENERGY   KINETIC ENERGY   VIRIAL THEOREM ACCURACY
   5.0   7   -2.443453004E+01  2.471954539E+01 -1.988470041E+00  3.9E-06

 NUCLEAR CHARGE  8.0  SYMMETRY SPECIES            S    P
 N. ELECTRONS    8.0  NUMBER OF PRIMITIVE GTOS    7    4
                      NUMBER OF CONTRACTED GTOS   3    2
                      NUMBER OF CLOSED SHELLS     2    0
                      OPEN SHELL OCCUPATION       0    4

  ZNUC SCFIT  TOTAL HF ENERGY   KINETIC ENERGY   VIRIAL THEOREM ACCURACY
   8.0  13   -7.471200414E+01  7.474432650E+01 -1.999567561E+00  2.0E-06

 NUCLEAR CHARGE  7.0  SYMMETRY SPECIES            S    P
 N. ELECTRONS    7.0  NUMBER OF PRIMITIVE GTOS    7    4
                      NUMBER OF CONTRACTED GTOS   3    2
                      NUMBER OF CLOSED SHELLS     2    0
                      OPEN SHELL OCCUPATION       0    3

  ZNUC SCFIT  TOTAL HF ENERGY   KINETIC ENERGY   VIRIAL THEOREM ACCURACY
   7.0   9   -5.433012196E+01  5.433288047E+01 -1.999949230E+00  2.1E-06

 NUCLEAR CHARGE  6.0  SYMMETRY SPECIES            S    P
 N. ELECTRONS    6.0  NUMBER OF PRIMITIVE GTOS    7    4
                      NUMBER OF CONTRACTED GTOS   3    2
                      NUMBER OF CLOSED SHELLS     2    0
                      OPEN SHELL OCCUPATION       0    2

  ZNUC SCFIT  TOTAL HF ENERGY   KINETIC ENERGY   VIRIAL THEOREM ACCURACY
   6.0   9   -3.761483716E+01  3.761967630E+01 -1.999871367E+00  1.6E-06

 AAAAAAAAAAAAAAAAAAAAAAAAAAAAAAAAAAAAAAAAAAAAAAAAAAAAAAAAAAAAAAAAAAAAAAAAAAAAAAA

 CHARGE NORMALIZATION FACTOR   1.00000000
 TOTAL ATOMIC CHARGES:
   5.0000000   8.0000000   5.0000000   7.0000000   5.0000000   7.0000000
   5.0000000   7.0000000   5.0000000   7.0000000   5.0000000   7.0000000
   5.0000000   7.0000000   5.0000000   7.0000000   5.0000000   7.0000000
   5.0000000   7.0000000   5.0000000   7.0000000   5.0000000   7.0000000
   5.0000000   7.0000000   5.0000000   7.0000000   6.0000000   7.0000000
   5.0000000   7.0000000   5.0000000   7.0000000   5.0000000   7.0000000
   5.0000000   7.0000000   5.0000000   7.0000000   5.0000000   7.0000000
   5.0000000   7.0000000   5.0000000   7.0000000   5.0000000   7.0000000
   5.0000000   7.0000000   5.0000000   7.0000000   5.0000000   7.0000000
 SUMMED SPIN DENSITY           0.00000000
 TOTAL ATOMIC SPINS  :
   0.0000000   0.0000000   0.0000000   0.0000000   0.0000000   0.0000000
   0.0000000   0.0000000   0.0000000   0.0000000   0.0000000   0.0000000
   0.0000000   0.0000000   0.0000000   0.0000000   0.0000000   0.0000000
   0.0000000   0.0000000   0.0000000   0.0000000   0.0000000   0.0000000
   0.0000000   0.0000000   0.0000000   0.0000000   0.0000000   0.0000000
   0.0000000   0.0000000   0.0000000   0.0000000   0.0000000   0.0000000
   0.0000000   0.0000000   0.0000000   0.0000000   0.0000000   0.0000000
   0.0000000   0.0000000   0.0000000   0.0000000   0.0000000   0.0000000
   0.0000000   0.0000000   0.0000000   0.0000000   0.0000000   0.0000000
 TTTTTTTTTTTTTTTTTTTTTTTTTTTTTT MOQGAD      TELAPSE       14.85 TCPU       14.65
 TTTTTTTTTTTTTTTTTTTTTTTTTTTTTT SHELLXN     TELAPSE     2612.23 TCPU     2612.18
 TTTTTTTTTTTTTTTTTTTTTTTTTTTTTT MONMO3      TELAPSE     2673.24 TCPU     2673.19
 NUMERICALLY INTEGRATED DENSITY    163.0003283632    163.0003283632
 TTTTTTTTTTTTTTTTTTTTTTTTTTTTTT NUMDFT      TELAPSE     2687.85 TCPU     2687.80
 CYC   0 ETOT(AU) -2.195122303724E+03 DETOT -2.20E+03 tst  0.00E+00 PX  1.00E+00
 TTTTTTTTTTTTTTTTTTTTTTTTTTTTTT DIIS        TELAPSE     2689.07 TCPU     2688.48
 TTTTTTTTTTTTTTTTTTTTTTTTTTTTTT FDIK        TELAPSE     2899.73 TCPU     2898.49

    ALPHA      ELECTRONS
 INSULATING STATE
 TOP OF VALENCE BANDS -    BAND    163; K   93; EIG  2.2642978E-02 AU
 TOP OF VALENCE BANDS -    BAND    163; K    1; EIG  1.3222561E-03 AU
 BOTTOM OF VIRTUAL BANDS - BAND    164; K   86; EIG  2.4968833E-02 AU
 INDIRECT ENERGY BAND GAP:   0.0633 eV
 BOTTOM OF VIRTUAL BANDS - BAND    164; K    1; EIG  3.0878759E-02 AU

    BETA       ELECTRONS
 INSULATING STATE
 TOP OF VALENCE BANDS -    BAND    163; K   93; EIG  2.2642978E-02 AU
 TOP OF VALENCE BANDS -    BAND    163; K    1; EIG  1.3222561E-03 AU
 BOTTOM OF VIRTUAL BANDS - BAND    164; K   86; EIG  2.4968833E-02 AU
 INDIRECT ENERGY BAND GAP:   0.0633 eV
 BOTTOM OF VIRTUAL BANDS - BAND    164; K    1; EIG  3.0878759E-02 AU
 TTTTTTTTTTTTTTTTTTTTTTTTTTTTTT PDIG        TELAPSE     2903.82 TCPU     2902.46
 CHARGE NORMALIZATION FACTOR   1.00000000
 TOTAL ATOMIC CHARGES:
   4.5982650   8.6770037   4.5964596   7.3235569   4.5964075   7.3235561
   4.6022625   7.4376170   4.4755628   7.3231449   4.6022382   7.4375813
   4.5997639   7.4383996   4.5997775   7.4384060   4.5918211   7.4477805
   4.6022694   7.4376374   4.4755804   7.3232014   4.6022641   7.4376225
   4.5021446   7.4477534   4.5020834   7.4478340   5.1942399   7.4545048
   4.5996315   7.4406906   4.5890325   7.4512994   4.5890439   7.4513095
   4.5997544   7.4384001   4.5997686   7.4384610   4.5918179   7.4477853
   4.5996177   7.4406689   4.5890252   7.4512972   4.5890146   7.4513036
   4.5858098   7.4506156   4.5810237   7.4514028   4.5858130   7.4506737
 SUMMED SPIN DENSITY          -0.00000000
 TOTAL ATOMIC SPINS  :
   0.0000000  -0.0000000   0.0000000  -0.0000000   0.0000000  -0.0000000
   0.0000000  -0.0000000   0.0000000   0.0000000  -0.0000000  -0.0000000
  -0.0000000   0.0000000   0.0000000  -0.0000000  -0.0000000  -0.0000000
   0.0000000   0.0000000  -0.0000000  -0.0000000   0.0000000   0.0000000
   0.0000000   0.0000000  -0.0000000  -0.0000000  -0.0000000   0.0000000
  -0.0000000   0.0000000  -0.0000000  -0.0000000   0.0000000  -0.0000000
   0.0000000  -0.0000000  -0.0000000   0.0000000   0.0000000  -0.0000000
   0.0000000  -0.0000000   0.0000000   0.0000000  -0.0000000   0.0000000
  -0.0000000  -0.0000000  -0.0000000  -0.0000000   0.0000000  -0.0000000
 TTTTTTTTTTTTTTTTTTTTTTTTTTTTTT MOQGAD      TELAPSE     2903.91 TCPU     2902.55
 TTTTTTTTTTTTTTTTTTTTTTTTTTTTTT SHELLXN     TELAPSE     5589.84 TCPU     5588.56
 TTTTTTTTTTTTTTTTTTTTTTTTTTTTTT MONMO3      TELAPSE     5651.19 TCPU     5649.92
 NUMERICALLY INTEGRATED DENSITY    163.0001885385    163.0001885385
 TTTTTTTTTTTTTTTTTTTTTTTTTTTTTT NUMDFT      TELAPSE     5698.39 TCPU     5697.12
 CYC   1 ETOT(AU) -2.181478584088E+03 DETOT  1.36E+01 tst  0.00E+00 PX  1.00E+00
 TTTTTTTTTTTTTTTTTTTTTTTTTTTTTT DIIS        TELAPSE     5699.43 TCPU     5697.94
 DIIS TEST: 0.43193E+01 AT SCF   CYCLE   1 - MIX   30 %
 TTTTTTTTTTTTTTTTTTTTTTTTTTTTTT FDIK        TELAPSE     5751.05 TCPU     5749.47
 POSSIBLY CONDUCTING STATE - EFERMI(AU)  7.8816912E-02 (RES. CHARGE  7.90E-11;IT.  6)
 TTTTTTTTTTTTTTTTTTTTTTTTTTTTTT PDIG        TELAPSE     5755.06 TCPU     5753.37
 CHARGE NORMALIZATION FACTOR   1.00000000
 TOTAL ATOMIC CHARGES:
   4.8184030   8.5669886   4.8443626   7.2353291   4.8442975   7.2351493
   4.8570241   7.1244793   4.7655785   7.1968456   4.8571694   7.1244072
   4.8324896   7.1244685   4.8325617   7.1247768   4.8459174   7.1287082
   4.8571540   7.1245873   4.7654732   7.1968240   4.8571144   7.1244246
   4.8520877   7.1352950   4.8520575   7.1355758   6.1987957   7.1444852
   4.7973315   7.1151635   4.8421229   7.1419054   4.8419597   7.1418426
   4.8325551   7.1246809   4.8324328   7.1246423   4.8459373   7.1288186
   4.7972919   7.1151444   4.8418762   7.1417809   4.8421548   7.1419945
   4.7829447   7.1166800   4.8109033   7.1371173   4.7832126   7.1166761
 SUMMED SPIN DENSITY          -0.00000000
 TOTAL ATOMIC SPINS  :
   0.0000000  -0.0000000   0.0000000  -0.0000000   0.0000000  -0.0000000
   0.0000000  -0.0000000   0.0000000  -0.0000000  -0.0000000  -0.0000000
  -0.0000000   0.0000000   0.0000000  -0.0000000   0.0000000  -0.0000000
   0.0000000   0.0000000  -0.0000000  -0.0000000   0.0000000   0.0000000
   0.0000000  -0.0000000   0.0000000  -0.0000000  -0.0000000  -0.0000000
  -0.0000000   0.0000000  -0.0000000  -0.0000000   0.0000000  -0.0000000
   0.0000000  -0.0000000  -0.0000000   0.0000000   0.0000000  -0.0000000
   0.0000000  -0.0000000   0.0000000   0.0000000   0.0000000   0.0000000
  -0.0000000  -0.0000000  -0.0000000  -0.0000000   0.0000000  -0.0000000
 TTTTTTTTTTTTTTTTTTTTTTTTTTTTTT MOQGAD      TELAPSE     5755.15 TCPU     5753.45
 TTTTTTTTTTTTTTTTTTTTTTTTTTTTTT SHELLXN     TELAPSE     8442.35 TCPU     8440.89
 TTTTTTTTTTTTTTTTTTTTTTTTTTTTTT MONMO3      TELAPSE     8505.49 TCPU     8504.03
 NUMERICALLY INTEGRATED DENSITY    163.0002031411    163.0002031411
 TTTTTTTTTTTTTTTTTTTTTTTTTTTTTT NUMDFT      TELAPSE     8552.70 TCPU     8551.24
 CYC   2 ETOT(AU) -2.181711529273E+03 DETOT -2.33E-01 tst  8.09E-03 PX  2.16E-01
 TTTTTTTTTTTTTTTTTTTTTTTTTTTTTT DIIS        TELAPSE     8553.56 TCPU     8551.80
 DIIS TEST: 0.31615E+01 AT SCF   CYCLE   2 - DIIS ACTIVE - HISTORY:     2 CYCLES
 TTTTTTTTTTTTTTTTTTTTTTTTTTTTTT FDIK        TELAPSE     8600.16 TCPU     8598.26

    ALPHA      ELECTRONS
 INSULATING STATE
 TOP OF VALENCE BANDS -    BAND    163; K   93; EIG  1.2412933E-01 AU
 TOP OF VALENCE BANDS -    BAND    163; K    1; EIG  9.9987860E-02 AU
 BOTTOM OF VIRTUAL BANDS - BAND    164; K   79; EIG  1.3497692E-01 AU
 INDIRECT ENERGY BAND GAP:   0.2952 eV
 BOTTOM OF VIRTUAL BANDS - BAND    164; K    1; EIG  1.4091705E-01 AU

    BETA       ELECTRONS
 INSULATING STATE
 TOP OF VALENCE BANDS -    BAND    163; K   93; EIG  1.2412933E-01 AU
 TOP OF VALENCE BANDS -    BAND    163; K    1; EIG  9.9987860E-02 AU
 BOTTOM OF VIRTUAL BANDS - BAND    164; K   79; EIG  1.3497692E-01 AU
 INDIRECT ENERGY BAND GAP:   0.2952 eV
 BOTTOM OF VIRTUAL BANDS - BAND    164; K    1; EIG  1.4091705E-01 AU
 TTTTTTTTTTTTTTTTTTTTTTTTTTTTTT PDIG        TELAPSE     8604.13 TCPU     8602.19
 CHARGE NORMALIZATION FACTOR   1.00000000
 TOTAL ATOMIC CHARGES:
   4.7705463   8.6442423   4.7589299   7.1108291   4.7588801   7.1111292
   4.7523162   7.2369437   4.7215141   7.1864303   4.7523264   7.2369320
   4.7762245   7.2812725   4.7764042   7.2812167   4.7423048   7.2622636
   4.7523954   7.2369527   4.7216330   7.1864314   4.7523976   7.2369191
   4.6678570   7.2517989   4.6679196   7.2520614   5.2689242   7.2592454
   4.8087078   7.2660333   4.7574476   7.2580932   4.7570976   7.2581845
   4.7763815   7.2812835   4.7762137   7.2811829   4.7422506   7.2624012
   4.8083848   7.2660823   4.7572699   7.2579859   4.7572822   7.2580923
   4.7975335   7.2865290   4.7852247   7.3007278   4.7976104   7.2867583
 SUMMED SPIN DENSITY          -0.00000000
 TOTAL ATOMIC SPINS  :
   0.0000000  -0.0000000   0.0000000  -0.0000000   0.0000000   0.0000000
   0.0000000  -0.0000000   0.0000000  -0.0000000  -0.0000000  -0.0000000
  -0.0000000   0.0000000   0.0000000  -0.0000000   0.0000000  -0.0000000
   0.0000000   0.0000000  -0.0000000  -0.0000000   0.0000000   0.0000000
   0.0000000  -0.0000000   0.0000000  -0.0000000   0.0000000   0.0000000
  -0.0000000   0.0000000  -0.0000000  -0.0000000   0.0000000  -0.0000000
   0.0000000  -0.0000000  -0.0000000   0.0000000   0.0000000  -0.0000000
   0.0000000  -0.0000000   0.0000000   0.0000000  -0.0000000   0.0000000
  -0.0000000  -0.0000000  -0.0000000  -0.0000000   0.0000000  -0.0000000
 TTTTTTTTTTTTTTTTTTTTTTTTTTTTTT MOQGAD      TELAPSE     8604.22 TCPU     8602.27
 TTTTTTTTTTTTTTTTTTTTTTTTTTTTTT SHELLXN     TELAPSE    11292.78 TCPU    11290.99
 TTTTTTTTTTTTTTTTTTTTTTTTTTTTTT MONMO3      TELAPSE    11355.79 TCPU    11354.01
 NUMERICALLY INTEGRATED DENSITY    163.0002003705    163.0002003705
 TTTTTTTTTTTTTTTTTTTTTTTTTTTTTT NUMDFT      TELAPSE    11403.05 TCPU    11401.26
 CYC   3 ETOT(AU) -2.181888329734E+03 DETOT -1.77E-01 tst  1.36E-01 PX  1.82E-01
 TTTTTTTTTTTTTTTTTTTTTTTTTTTTTT DIIS        TELAPSE    11403.97 TCPU    11401.79
 DIIS TEST: 0.13986E+01 AT SCF   CYCLE   3 - DIIS ACTIVE - HISTORY:     3 CYCLES
 TTTTTTTTTTTTTTTTTTTTTTTTTTTTTT FDIK        TELAPSE    11453.53 TCPU    11451.12

    ALPHA      ELECTRONS
 INSULATING STATE
 TOP OF VALENCE BANDS -    BAND    163; K   93; EIG  1.1895730E-01 AU
 TOP OF VALENCE BANDS -    BAND    163; K    1; EIG  9.1093269E-02 AU
 BOTTOM OF VIRTUAL BANDS - BAND    164; K   27; EIG  1.2344547E-01 AU
 INDIRECT ENERGY BAND GAP:   0.1221 eV
 BOTTOM OF VIRTUAL BANDS - BAND    164; K    1; EIG  1.2811608E-01 AU

    BETA       ELECTRONS
 INSULATING STATE
 TOP OF VALENCE BANDS -    BAND    163; K   93; EIG  1.1895730E-01 AU
 TOP OF VALENCE BANDS -    BAND    163; K    1; EIG  9.1093269E-02 AU
 BOTTOM OF VIRTUAL BANDS - BAND    164; K   27; EIG  1.2344547E-01 AU
 INDIRECT ENERGY BAND GAP:   0.1221 eV
 BOTTOM OF VIRTUAL BANDS - BAND    164; K    1; EIG  1.2811608E-01 AU
 TTTTTTTTTTTTTTTTTTTTTTTTTTTTTT PDIG        TELAPSE    11457.57 TCPU    11455.01
 CHARGE NORMALIZATION FACTOR   1.00000000
 TOTAL ATOMIC CHARGES:
   4.7098333   8.6464383   4.7163605   7.2508914   4.7163433   7.2509413
   4.7286461   7.2821064   4.6341643   7.2557155   4.7286934   7.2820378
   4.7156795   7.2825552   4.7157978   7.2825041   4.7186986   7.2982895
   4.7287796   7.2820697   4.6342137   7.2557749   4.7286317   7.2820502
   4.6771756   7.2922936   4.6769879   7.2922560   5.5649310   7.3021325
   4.7138490   7.2764479   4.7199997   7.3014345   4.7200716   7.3013907
   4.7157871   7.2825132   4.7157434   7.2826291   4.7186810   7.2982779
   4.7138533   7.2765644   4.7201094   7.3014020   4.7201036   7.3013666
   4.6990539   7.2941131   4.6990580   7.3013881   4.6989976   7.2941716
 SUMMED SPIN DENSITY           0.00000000
 TOTAL ATOMIC SPINS  :
  -0.0000000  -0.0000000   0.0000000  -0.0000000  -0.0000000  -0.0000000
  -0.0000000  -0.0000000   0.0000000  -0.0000000  -0.0000000  -0.0000000
  -0.0000000   0.0000000   0.0000000  -0.0000000   0.0000000  -0.0000000
   0.0000000   0.0000000  -0.0000000  -0.0000000   0.0000000   0.0000000
   0.0000000   0.0000000   0.0000000   0.0000000   0.0000000   0.0000000
  -0.0000000   0.0000000  -0.0000000  -0.0000000   0.0000000  -0.0000000
   0.0000000  -0.0000000  -0.0000000   0.0000000   0.0000000  -0.0000000
   0.0000000  -0.0000000   0.0000000   0.0000000  -0.0000000   0.0000000
  -0.0000000  -0.0000000  -0.0000000  -0.0000000   0.0000000   0.0000000
 TTTTTTTTTTTTTTTTTTTTTTTTTTTTTT MOQGAD      TELAPSE    11457.65 TCPU    11455.09
 TTTTTTTTTTTTTTTTTTTTTTTTTTTTTT SHELLXN     TELAPSE    14143.31 TCPU    14140.81
 TTTTTTTTTTTTTTTTTTTTTTTTTTTTTT MONMO3      TELAPSE    14205.90 TCPU    14203.41
 NUMERICALLY INTEGRATED DENSITY    163.0001984507    163.0001984507
 TTTTTTTTTTTTTTTTTTTTTTTTTTTTTT NUMDFT      TELAPSE    14254.11 TCPU    14251.62
 CYC   4 ETOT(AU) -2.181986734309E+03 DETOT -9.84E-02 tst  1.36E-03 PX  5.53E-02
 TTTTTTTTTTTTTTTTTTTTTTTTTTTTTT DIIS        TELAPSE    14255.03 TCPU    14252.28
 DIIS TEST: 0.10270E-01 AT SCF   CYCLE   4 - DIIS ACTIVE - HISTORY:     4 CYCLES
 TTTTTTTTTTTTTTTTTTTTTTTTTTTTTT FDIK        TELAPSE    14300.92 TCPU    14297.89

    ALPHA      ELECTRONS
 INSULATING STATE
 TOP OF VALENCE BANDS -    BAND    163; K   93; EIG  1.1541818E-01 AU
 TOP OF VALENCE BANDS -    BAND    163; K    1; EIG  8.7624437E-02 AU
 BOTTOM OF VIRTUAL BANDS - BAND    164; K   27; EIG  1.2085104E-01 AU
 INDIRECT ENERGY BAND GAP:   0.1478 eV
 BOTTOM OF VIRTUAL BANDS - BAND    164; K    1; EIG  1.2586877E-01 AU

    BETA       ELECTRONS
 INSULATING STATE
 TOP OF VALENCE BANDS -    BAND    163; K   93; EIG  1.1541818E-01 AU
 TOP OF VALENCE BANDS -    BAND    163; K    1; EIG  8.7624437E-02 AU
 BOTTOM OF VIRTUAL BANDS - BAND    164; K   27; EIG  1.2085104E-01 AU
 INDIRECT ENERGY BAND GAP:   0.1478 eV
 BOTTOM OF VIRTUAL BANDS - BAND    164; K    1; EIG  1.2586877E-01 AU
 TTTTTTTTTTTTTTTTTTTTTTTTTTTTTT PDIG        TELAPSE    14304.97 TCPU    14301.75
 CHARGE NORMALIZATION FACTOR   1.00000000
 TOTAL ATOMIC CHARGES:
   4.7087776   8.6587964   4.7182477   7.2475404   4.7181985   7.2474282
   4.7182255   7.2689885   4.6588840   7.2612705   4.7182442   7.2689687
   4.7212134   7.2974855   4.7212120   7.2975071   4.7038418   7.2833152
   4.7182120   7.2689807   4.6589177   7.2612985   4.7182326   7.2690036
   4.6708860   7.2900483   4.6708749   7.2901027   5.6104321   7.2929932
   4.7118046   7.2882244   4.7119735   7.2937180   4.7119875   7.2936975
   4.7212114   7.2974850   4.7212187   7.2975307   4.7038130   7.2832997
   4.7117846   7.2882211   4.7119618   7.2936797   4.7119300   7.2937053
   4.6972475   7.2945764   4.7159173   7.3150250   4.6972636   7.2945961
 SUMMED SPIN DENSITY           0.00000000
 TOTAL ATOMIC SPINS  :
  -0.0000000  -0.0000000  -0.0000000  -0.0000000  -0.0000000  -0.0000000
   0.0000000  -0.0000000   0.0000000   0.0000000  -0.0000000  -0.0000000
  -0.0000000   0.0000000   0.0000000  -0.0000000  -0.0000000  -0.0000000
   0.0000000   0.0000000  -0.0000000  -0.0000000   0.0000000   0.0000000
   0.0000000   0.0000000  -0.0000000   0.0000000   0.0000000   0.0000000
   0.0000000   0.0000000  -0.0000000  -0.0000000   0.0000000  -0.0000000
   0.0000000  -0.0000000  -0.0000000   0.0000000   0.0000000   0.0000000
  -0.0000000  -0.0000000   0.0000000   0.0000000  -0.0000000   0.0000000
  -0.0000000  -0.0000000  -0.0000000   0.0000000   0.0000000  -0.0000000
 TTTTTTTTTTTTTTTTTTTTTTTTTTTTTT MOQGAD      TELAPSE    14305.05 TCPU    14301.83
 TTTTTTTTTTTTTTTTTTTTTTTTTTTTTT SHELLXN     TELAPSE    16988.19 TCPU    16985.00
 TTTTTTTTTTTTTTTTTTTTTTTTTTTTTT MONMO3      TELAPSE    17054.46 TCPU    17051.27
 NUMERICALLY INTEGRATED DENSITY    163.0001978833    163.0001978833
 TTTTTTTTTTTTTTTTTTTTTTTTTTTTTT NUMDFT      TELAPSE    17101.63 TCPU    17098.45
 CYC   5 ETOT(AU) -2.181986158876E+03 DETOT  5.75E-04 tst  3.25E-05 PX  1.27E-02
 TTTTTTTTTTTTTTTTTTTTTTTTTTTTTT DIIS        TELAPSE    17102.70 TCPU    17099.15
 DIIS TEST: 0.21600E-01 AT SCF   CYCLE   5 - DIIS ACTIVE - HISTORY:     5 CYCLES
 TTTTTTTTTTTTTTTTTTTTTTTTTTTTTT FDIK        TELAPSE    17148.69 TCPU    17145.07

    ALPHA      ELECTRONS
 INSULATING STATE
 TOP OF VALENCE BANDS -    BAND    163; K   93; EIG  1.1637037E-01 AU
 TOP OF VALENCE BANDS -    BAND    163; K    1; EIG  8.8461010E-02 AU
 BOTTOM OF VIRTUAL BANDS - BAND    164; K   27; EIG  1.2144638E-01 AU
 INDIRECT ENERGY BAND GAP:   0.1381 eV
 BOTTOM OF VIRTUAL BANDS - BAND    164; K    1; EIG  1.2632344E-01 AU

    BETA       ELECTRONS
 INSULATING STATE
 TOP OF VALENCE BANDS -    BAND    163; K   93; EIG  1.1637037E-01 AU
 TOP OF VALENCE BANDS -    BAND    163; K    1; EIG  8.8461010E-02 AU
 BOTTOM OF VIRTUAL BANDS - BAND    164; K   27; EIG  1.2144638E-01 AU
 INDIRECT ENERGY BAND GAP:   0.1381 eV
 BOTTOM OF VIRTUAL BANDS - BAND    164; K    1; EIG  1.2632344E-01 AU
 TTTTTTTTTTTTTTTTTTTTTTTTTTTTTT PDIG        TELAPSE    17152.65 TCPU    17148.98
 CHARGE NORMALIZATION FACTOR   1.00000000
 TOTAL ATOMIC CHARGES:
   4.7109826   8.6436644   4.7183610   7.2479746   4.7183259   7.2479596
   4.7256692   7.2756017   4.6422153   7.2562716   4.7256412   7.2755685
   4.7189856   7.2859743   4.7189800   7.2859863   4.7149338   7.2917870
   4.7256693   7.2756018   4.6422218   7.2563165   4.7256699   7.2756053
   4.6742769   7.2885635   4.6741996   7.2886232   5.6011061   7.2998861
   4.7173697   7.2782309   4.7175390   7.2966127   4.7175543   7.2966189
   4.7189736   7.2859727   4.7189896   7.2860257   4.7149193   7.2917866
   4.7173604   7.2782265   4.7175544   7.2966104   4.7175454   7.2966156
   4.7023151   7.2939067   4.7053082   7.3051006   4.7023095   7.2939319
 SUMMED SPIN DENSITY           0.00000000
 TOTAL ATOMIC SPINS  :
  -0.0000000  -0.0000000  -0.0000000  -0.0000000  -0.0000000  -0.0000000
   0.0000000  -0.0000000   0.0000000   0.0000000  -0.0000000  -0.0000000
  -0.0000000   0.0000000   0.0000000  -0.0000000  -0.0000000  -0.0000000
   0.0000000   0.0000000  -0.0000000   0.0000000   0.0000000   0.0000000
   0.0000000   0.0000000  -0.0000000  -0.0000000  -0.0000000   0.0000000
   0.0000000   0.0000000  -0.0000000  -0.0000000   0.0000000  -0.0000000
   0.0000000  -0.0000000  -0.0000000   0.0000000   0.0000000   0.0000000
  -0.0000000  -0.0000000   0.0000000   0.0000000  -0.0000000   0.0000000
  -0.0000000   0.0000000   0.0000000   0.0000000   0.0000000   0.0000000
 TTTTTTTTTTTTTTTTTTTTTTTTTTTTTT MOQGAD      TELAPSE    17152.73 TCPU    17149.07
 TTTTTTTTTTTTTTTTTTTTTTTTTTTTTT SHELLXN     TELAPSE    19835.25 TCPU    19831.66
 TTTTTTTTTTTTTTTTTTTTTTTTTTTTTT MONMO3      TELAPSE    19901.34 TCPU    19897.75
 NUMERICALLY INTEGRATED DENSITY    163.0001979626    163.0001979626
 TTTTTTTTTTTTTTTTTTTTTTTTTTTTTT NUMDFT      TELAPSE    19948.62 TCPU    19945.03
 CYC   6 ETOT(AU) -2.181987610936E+03 DETOT -1.45E-03 tst  1.55E-05 PX  8.20E-03
 TTTTTTTTTTTTTTTTTTTTTTTTTTTTTT DIIS        TELAPSE    19949.71 TCPU    19945.88
 DIIS TEST: 0.52654E-03 AT SCF   CYCLE   6 - DIIS ACTIVE - HISTORY:     6 CYCLES
 TTTTTTTTTTTTTTTTTTTTTTTTTTTTTT FDIK        TELAPSE    19996.26 TCPU    19992.25

    ALPHA      ELECTRONS
 INSULATING STATE
 TOP OF VALENCE BANDS -    BAND    163; K   93; EIG  1.1602943E-01 AU
 TOP OF VALENCE BANDS -    BAND    163; K    1; EIG  8.8168018E-02 AU
 BOTTOM OF VIRTUAL BANDS - BAND    164; K   27; EIG  1.2154197E-01 AU
 INDIRECT ENERGY BAND GAP:   0.1500 eV
 BOTTOM OF VIRTUAL BANDS - BAND    164; K    1; EIG  1.2648244E-01 AU

    BETA       ELECTRONS
 INSULATING STATE
 TOP OF VALENCE BANDS -    BAND    163; K   93; EIG  1.1602943E-01 AU
 TOP OF VALENCE BANDS -    BAND    163; K    1; EIG  8.8168018E-02 AU
 BOTTOM OF VIRTUAL BANDS - BAND    164; K   27; EIG  1.2154197E-01 AU
 INDIRECT ENERGY BAND GAP:   0.1500 eV
 BOTTOM OF VIRTUAL BANDS - BAND    164; K    1; EIG  1.2648244E-01 AU
 TTTTTTTTTTTTTTTTTTTTTTTTTTTTTT PDIG        TELAPSE    20000.40 TCPU    19996.34
 CHARGE NORMALIZATION FACTOR   1.00000000
 TOTAL ATOMIC CHARGES:
   4.7106717   8.6488608   4.7182993   7.2498670   4.7182564   7.2498792
   4.7261522   7.2753948   4.6452263   7.2582003   4.7261267   7.2753520
   4.7189326   7.2863192   4.7189378   7.2863274   4.7138937   7.2909018
   4.7261507   7.2754056   4.6452329   7.2582515   4.7261479   7.2753920
   4.6777606   7.2902422   4.6776871   7.2903030   5.5872659   7.2968182
   4.7146612   7.2787645   4.7176979   7.2972704   4.7176922   7.2972879
   4.7189235   7.2863205   4.7189324   7.2863757   4.7138849   7.2909025
   4.7146463   7.2787495   4.7176993   7.2972806   4.7176852   7.2972792
   4.6993076   7.2922642   4.7055982   7.3049139   4.6992979   7.2923076
 SUMMED SPIN DENSITY           0.00000000
 TOTAL ATOMIC SPINS  :
  -0.0000000   0.0000000  -0.0000000  -0.0000000   0.0000000  -0.0000000
   0.0000000  -0.0000000   0.0000000   0.0000000  -0.0000000  -0.0000000
  -0.0000000   0.0000000   0.0000000  -0.0000000  -0.0000000  -0.0000000
   0.0000000   0.0000000  -0.0000000  -0.0000000   0.0000000   0.0000000
   0.0000000   0.0000000  -0.0000000   0.0000000  -0.0000000   0.0000000
   0.0000000   0.0000000  -0.0000000  -0.0000000   0.0000000  -0.0000000
   0.0000000  -0.0000000  -0.0000000   0.0000000   0.0000000   0.0000000
  -0.0000000  -0.0000000   0.0000000   0.0000000  -0.0000000   0.0000000
  -0.0000000  -0.0000000   0.0000000  -0.0000000   0.0000000   0.0000000
 TTTTTTTTTTTTTTTTTTTTTTTTTTTTTT MOQGAD      TELAPSE    20000.48 TCPU    19996.43
 TTTTTTTTTTTTTTTTTTTTTTTTTTTTTT SHELLXN     TELAPSE    22682.66 TCPU    22678.57
 TTTTTTTTTTTTTTTTTTTTTTTTTTTTTT MONMO3      TELAPSE    22745.69 TCPU    22741.61
 NUMERICALLY INTEGRATED DENSITY    163.0001979815    163.0001979815
 TTTTTTTTTTTTTTTTTTTTTTTTTTTTTT NUMDFT      TELAPSE    22793.18 TCPU    22789.10
 CYC   7 ETOT(AU) -2.181987639500E+03 DETOT -2.86E-05 tst  2.02E-06 PX  3.53E-03
 TTTTTTTTTTTTTTTTTTTTTTTTTTTTTT DIIS        TELAPSE    22794.17 TCPU    22790.09
 DIIS TEST: 0.25985E-03 AT SCF   CYCLE   7 - DIIS ACTIVE - HISTORY:     7 CYCLES
 TTTTTTTTTTTTTTTTTTTTTTTTTTTTTT FDIK        TELAPSE    22836.43 TCPU    22832.08

    ALPHA      ELECTRONS
 INSULATING STATE
 TOP OF VALENCE BANDS -    BAND    163; K   93; EIG  1.1611216E-01 AU
 TOP OF VALENCE BANDS -    BAND    163; K    1; EIG  8.8308834E-02 AU
 BOTTOM OF VIRTUAL BANDS - BAND    164; K   27; EIG  1.2153049E-01 AU
 INDIRECT ENERGY BAND GAP:   0.1474 eV
 BOTTOM OF VIRTUAL BANDS - BAND    164; K    1; EIG  1.2639456E-01 AU

    BETA       ELECTRONS
 INSULATING STATE
 TOP OF VALENCE BANDS -    BAND    163; K   93; EIG  1.1611216E-01 AU
 TOP OF VALENCE BANDS -    BAND    163; K    1; EIG  8.8308834E-02 AU
 BOTTOM OF VIRTUAL BANDS - BAND    164; K   27; EIG  1.2153049E-01 AU
 INDIRECT ENERGY BAND GAP:   0.1474 eV
 BOTTOM OF VIRTUAL BANDS - BAND    164; K    1; EIG  1.2639456E-01 AU
 TTTTTTTTTTTTTTTTTTTTTTTTTTTTTT PDIG        TELAPSE    22840.36 TCPU    22835.97
 CHARGE NORMALIZATION FACTOR   1.00000000
 TOTAL ATOMIC CHARGES:
   4.7105050   8.6456815   4.7179884   7.2486883   4.7179475   7.2486909
   4.7255833   7.2750848   4.6440895   7.2578094   4.7255637   7.2750482
   4.7189779   7.2868324   4.7189850   7.2868398   4.7140614   7.2913532
   4.7255889   7.2750989   4.6440981   7.2578571   4.7255828   7.2750868
   4.6754157   7.2899054   4.6753471   7.2899676   5.5919941   7.2981056
[...]
                 19 B    (  1  0 -1)     2.935     1.553    -0.000
                 33 B    (  0  0  0)     2.943     1.557    -0.000
                 32 N    (  1  0 -1)     4.778     2.528    -0.000
                 16 N    (  0  0  0)     4.778     2.528    -0.000

 ATOM A  15 B    ATOM B     CELL      R(AB)/AU R(AB)/ANG    OVPOP(AB)
                 46 N    (  0  0  0)     2.928     1.550    -0.000
                 50 N    (  0  0  0)     2.929     1.550     0.000
                  8 N    (  0  0  0)     2.935     1.553     0.000
                 44 N    (  0  0  0)     2.935     1.553    -0.000
                  3 B    (  0  0  0)     4.781     2.530     0.000
                 39 B    (  0  0  0)     4.781     2.530    -0.000

 ATOM A  16 N    ATOM B     CELL      R(AB)/AU R(AB)/ANG    OVPOP(AB)
                 21 B    (  0  0  0)     2.872     1.520     0.000
                  5 B    (  0  0  0)     2.935     1.553     0.000
                 23 B    (  1  0  0)     2.935     1.553     0.000
                 35 B    (  0  0  0)     2.943     1.557     0.000
                 32 N    (  1  0 -1)     4.778     2.528     0.000
                 14 N    (  0  0  0)     4.778     2.528    -0.000

 ATOM A  17 B    ATOM B     CELL      R(AB)/AU R(AB)/ANG    OVPOP(AB)
                 48 N    (  0  0  0)     2.929     1.550     0.000
                 52 N    (  0  0  0)     2.929     1.550    -0.000
                 46 N    (  0  0  0)     2.929     1.550     0.000
                 10 N    (  0  0  0)     2.935     1.553     0.000
                 49 B    (  0  0  0)     4.776     2.528     0.000
                 41 B    (  0  0  0)     4.776     2.528    -0.000

 ATOM A  18 N    ATOM B     CELL      R(AB)/AU R(AB)/ANG    OVPOP(AB)
                 23 B    (  0  0  0)     2.929     1.550     0.000
                 19 B    (  0  0  0)     2.929     1.550     0.000
                 31 B    (  0  0  0)     2.929     1.550    -0.000
                  1 B    (  0  0  0)     2.933     1.552    -0.000
                 34 N    (  0  0  0)     4.786     2.533    -0.000
                 30 N    (  0  0  0)     4.786     2.533    -0.000

 ATOM A  19 B    ATOM B     CELL      R(AB)/AU R(AB)/ANG    OVPOP(AB)
                 36 N    (  0  0  0)     2.928     1.550    -0.000
                 18 N    (  0  0  0)     2.929     1.550     0.000
                 14 N    ( -1  0  1)     2.935     1.553    -0.000
                  6 N    (  0  0  0)     2.935     1.553    -0.000
                 31 B    (  0  0  0)     4.781     2.530     0.000
                 23 B    (  0  0  0)     4.782     2.530    -0.000

 ATOM A  20 N    ATOM B     CELL      R(AB)/AU R(AB)/ANG    OVPOP(AB)
                 27 B    ( -1  0  1)     2.872     1.520    -0.000
                 43 B    (  0  0  0)     2.935     1.553    -0.000
                 39 B    (  0 -1  1)     2.935     1.553     0.000
                 45 B    (  0 -1  1)     2.943     1.557    -0.000
                  4 N    ( -1  0  1)     4.778     2.528     0.000
                  8 N    ( -1  0  1)     4.778     2.528    -0.000

 ATOM A  21 B    ATOM B     CELL      R(AB)/AU R(AB)/ANG    OVPOP(AB)
                 16 N    (  0  0  0)     2.872     1.520     0.000
                 32 N    (  1  0 -1)     2.872     1.520    -0.000
                 14 N    (  0  0  0)     2.872     1.520    -0.000
                  2 O    (  0  1  0)     3.103     1.642     0.000
                 33 B    (  0  0  0)     4.648     2.460     0.000
                 35 B    (  0  0  0)     4.648     2.460    -0.000

 ATOM A  22 N    ATOM B     CELL      R(AB)/AU R(AB)/ANG    OVPOP(AB)
                 45 B    (  0  0  0)     2.926     1.549     0.000
                 29 C    (  0  0  0)     2.926     1.549    -0.000
                 47 B    (  0  0  0)     2.926     1.549    -0.000
                 41 B    (  0  0  0)     2.935     1.553    -0.000
                 34 N    (  0  0  0)     4.784     2.532    -0.000
                 52 N    (  0  0  0)     4.784     2.532    -0.000

 ATOM A  23 B    ATOM B     CELL      R(AB)/AU R(AB)/ANG    OVPOP(AB)
                 34 N    (  0  0  0)     2.928     1.550     0.000
                 18 N    (  0  0  0)     2.929     1.550     0.000
                 16 N    ( -1  0  0)     2.935     1.553     0.000
                  4 N    ( -1  1  0)     2.935     1.553    -0.000
                 31 B    (  0  0  0)     4.781     2.530     0.000
                 19 B    (  0  0  0)     4.782     2.530    -0.000

 ATOM A  24 N    ATOM B     CELL      R(AB)/AU R(AB)/ANG    OVPOP(AB)
                 25 B    (  0  1  0)     2.872     1.520     0.000
                 37 B    (  0  0  0)     2.935     1.553    -0.000
                 43 B    (  0  1  0)     2.935     1.553    -0.000
                 47 B    (  0  0  0)     2.943     1.557    -0.000
                 12 N    (  0  1  0)     4.778     2.528    -0.000
                  6 N    (  0  0  0)     4.778     2.528    -0.000

 ATOM A  25 B    ATOM B     CELL      R(AB)/AU R(AB)/ANG    OVPOP(AB)
                 24 N    (  0 -1  0)     2.872     1.520     0.000
                 12 N    (  0  0  0)     2.872     1.520     0.000
                  6 N    (  0 -1  0)     2.872     1.520    -0.000
                  2 O    ( -1  0  1)     3.103     1.642    -0.000
                 47 B    (  0 -1  0)     4.648     2.460    -0.000
                 35 B    ( -1  0  0)     4.648     2.460    -0.000

 ATOM A  26 N    ATOM B     CELL      R(AB)/AU R(AB)/ANG    OVPOP(AB)
                 33 B    ( -1  0  1)     2.926     1.549    -0.000
                 51 B    (  0  0  1)     2.926     1.549    -0.000
                 45 B    (  0 -1  1)     2.926     1.549    -0.000
                 49 B    (  0  0  0)     2.935     1.553    -0.000
                 48 N    (  0  0  0)     4.784     2.532    -0.000
                 36 N    (  0  0  0)     4.784     2.532    -0.000

 ATOM A  27 B    ATOM B     CELL      R(AB)/AU R(AB)/ANG    OVPOP(AB)
                  4 N    (  0  0  0)     2.872     1.520     0.000
                  8 N    (  0  0  0)     2.872     1.520     0.000
                 20 N    (  1  0 -1)     2.872     1.520    -0.000
                  2 O    (  0  0  0)     3.103     1.642     0.000
                 33 B    (  0  0  0)     4.648     2.460     0.000
                 29 C    (  1 -1  0)     4.648     2.460    -0.000

 ATOM A  28 N    ATOM B     CELL      R(AB)/AU R(AB)/ANG    OVPOP(AB)
                 51 B    (  0  0  0)     2.926     1.549    -0.000
                 35 B    ( -1  0  0)     2.926     1.549     0.000
                 47 B    (  0 -1  0)     2.926     1.549     0.000
                 53 B    (  0  0  0)     2.935     1.553     0.000
                 34 N    (  0  0  0)     4.784     2.532    -0.000
                 46 N    (  0  0  0)     4.784     2.532     0.000

 ATOM A  29 C    ATOM B     CELL      R(AB)/AU R(AB)/ANG    OVPOP(AB)
                 22 N    (  0  0  0)     2.926     1.549    -0.000
                 10 N    ( -1  1  0)     2.926     1.549     0.000
                  6 N    (  0  0  0)     2.943     1.557    -0.000
                  4 N    ( -1  1  0)     2.943     1.557    -0.000
                 27 B    ( -1  1  0)     4.648     2.460    -0.000
                 25 B    (  0  1  0)     4.648     2.460     0.000

 ATOM A  30 N    ATOM B     CELL      R(AB)/AU R(AB)/ANG    OVPOP(AB)
                 31 B    (  0  0  0)     2.928     1.550    -0.000
                 43 B    (  0  0  0)     2.928     1.550    -0.000
                 53 B    (  0  0  0)     2.929     1.550    -0.000
                 49 B    (  0  0  0)     2.929     1.550    -0.000
                 26 N    (  0  0  0)     4.784     2.532    -0.000
                 28 N    (  0  0  0)     4.784     2.532    -0.000

 ATOM A  31 B    ATOM B     CELL      R(AB)/AU R(AB)/ANG    OVPOP(AB)
                 30 N    (  0  0  0)     2.928     1.550    -0.000
                 18 N    (  0  0  0)     2.929     1.550    -0.000
                  8 N    ( -1  0  1)     2.935     1.553     0.000
                 12 N    (  0  0  0)     2.935     1.553    -0.000
                 19 B    (  0  0  0)     4.781     2.530     0.000
                 23 B    (  0  0  0)     4.781     2.530     0.000

 ATOM A  32 N    ATOM B     CELL      R(AB)/AU R(AB)/ANG    OVPOP(AB)
                 21 B    ( -1  0  1)     2.872     1.520    -0.000
                 37 B    (  0  0  0)     2.935     1.553     0.000
                 39 B    (  0  0  1)     2.935     1.553    -0.000
                 51 B    (  0  0  1)     2.943     1.557    -0.000
                 16 N    ( -1  0  1)     4.778     2.528     0.000
                 14 N    ( -1  0  1)     4.778     2.528    -0.000

 ATOM A  33 B    ATOM B     CELL      R(AB)/AU R(AB)/ANG    OVPOP(AB)
                 10 N    (  0  0  0)     2.926     1.549    -0.000
                 26 N    (  1  0 -1)     2.926     1.549    -0.000
                  8 N    (  0  0  0)     2.943     1.557    -0.000
                 14 N    (  0  0  0)     2.943     1.557    -0.000
                 27 B    (  0  0  0)     4.648     2.460     0.000
                 21 B    (  0  0  0)     4.648     2.460     0.000

 ATOM A  34 N    ATOM B     CELL      R(AB)/AU R(AB)/ANG    OVPOP(AB)
                 23 B    (  0  0  0)     2.928     1.550     0.000
                 39 B    (  0  0  0)     2.928     1.550     0.000
                 53 B    (  0  0  0)     2.929     1.550    -0.000
                 41 B    (  0  0  0)     2.929     1.550     0.000
                 28 N    (  0  0  0)     4.784     2.532    -0.000
                 22 N    (  0  0  0)     4.784     2.532    -0.000

 ATOM A  35 B    ATOM B     CELL      R(AB)/AU R(AB)/ANG    OVPOP(AB)
                 28 N    (  1  0  0)     2.926     1.549     0.000
                 10 N    (  0  0  0)     2.926     1.549    -0.000
                 12 N    (  1  0  0)     2.943     1.557     0.000
                 16 N    (  0  0  0)     2.943     1.557     0.000
                 25 B    (  1  0  0)     4.648     2.460    -0.000
                 21 B    (  0  0  0)     4.648     2.460    -0.000

 ATOM A  36 N    ATOM B     CELL      R(AB)/AU R(AB)/ANG    OVPOP(AB)
                 19 B    (  0  0  0)     2.928     1.550    -0.000
                 37 B    (  0  0  0)     2.928     1.550     0.000
                 41 B    (  0  0  0)     2.929     1.550    -0.000
                 49 B    (  0  0  0)     2.929     1.550    -0.000
                 26 N    (  0  0  0)     4.784     2.532    -0.000
                 22 N    (  0  0  0)     4.784     2.532    -0.000

 ATOM A  37 B    ATOM B     CELL      R(AB)/AU R(AB)/ANG    OVPOP(AB)
                 36 N    (  0  0  0)     2.928     1.550     0.000
                 54 N    (  0  0  0)     2.929     1.550     0.000
                 32 N    (  0  0  0)     2.935     1.553     0.000
                 24 N    (  0  0  0)     2.935     1.553    -0.000
                  5 B    (  0  0  0)     4.781     2.530    -0.000
                 13 B    (  0  0  0)     4.782     2.530    -0.000

 ATOM A  38 N    ATOM B     CELL      R(AB)/AU R(AB)/ANG    OVPOP(AB)
                  9 B    (  0  1  0)     2.872     1.520    -0.000
                  7 B    (  0  1 -1)     2.935     1.553    -0.000
                  3 B    (  0  0  0)     2.935     1.553    -0.000
                 45 B    (  0  0  0)     2.943     1.557     0.000
                 44 N    (  0  1  0)     4.778     2.528    -0.000
                 40 N    (  0  1  0)     4.778     2.528    -0.000

 ATOM A  39 B    ATOM B     CELL      R(AB)/AU R(AB)/ANG    OVPOP(AB)
                 34 N    (  0  0  0)     2.928     1.550     0.000
                 50 N    (  0  0  0)     2.929     1.550    -0.000
                 32 N    (  0  0 -1)     2.935     1.553    -0.000
                 20 N    (  0  1 -1)     2.935     1.553     0.000
                 15 B    (  0  0  0)     4.781     2.530    -0.000
                  3 B    (  0  0  0)     4.782     2.530     0.000

 ATOM A  40 N    ATOM B     CELL      R(AB)/AU R(AB)/ANG    OVPOP(AB)
                  9 B    (  0  0  0)     2.872     1.520    -0.000
                 11 B    (  0  0  0)     2.935     1.553    -0.000
                  5 B    (  0 -1  0)     2.935     1.553    -0.000
                 47 B    (  0 -1  0)     2.943     1.557    -0.000
                 38 N    (  0 -1  0)     4.778     2.528    -0.000
                 44 N    (  0  0  0)     4.778     2.528    -0.000

 ATOM A  41 B    ATOM B     CELL      R(AB)/AU R(AB)/ANG    OVPOP(AB)
                 52 N    (  0  0  0)     2.929     1.550    -0.000
                 36 N    (  0  0  0)     2.929     1.550    -0.000
                 34 N    (  0  0  0)     2.929     1.550     0.000
                 22 N    (  0  0  0)     2.935     1.553    -0.000
                 53 B    (  0  0  0)     4.776     2.528    -0.000
                 17 B    (  0  0  0)     4.776     2.528    -0.000

 ATOM A  42 N    ATOM B     CELL      R(AB)/AU R(AB)/ANG    OVPOP(AB)
                 11 B    (  0  0  0)     2.929     1.550    -0.000
                 43 B    (  0  0  0)     2.929     1.550     0.000
                  7 B    (  0  0  0)     2.929     1.550    -0.000
                  1 B    (  1 -1  0)     2.933     1.552    -0.000
                 48 N    (  0  0  0)     4.786     2.533     0.000
                 30 N    (  0  0  0)     4.786     2.533    -0.000

 ATOM A  43 B    ATOM B     CELL      R(AB)/AU R(AB)/ANG    OVPOP(AB)
                 30 N    (  0  0  0)     2.928     1.550    -0.000
                 42 N    (  0  0  0)     2.929     1.550     0.000
                 20 N    (  0  0  0)     2.935     1.553    -0.000
                 24 N    (  0 -1  0)     2.935     1.553    -0.000
                 11 B    (  0  0  0)     4.781     2.530    -0.000
                  7 B    (  0  0  0)     4.782     2.530    -0.000

 ATOM A  44 N    ATOM B     CELL      R(AB)/AU R(AB)/ANG    OVPOP(AB)
                  9 B    (  0  0  0)     2.872     1.520    -0.000
                 13 B    (  0  0 -1)     2.935     1.553    -0.000
                 15 B    (  0  0  0)     2.935     1.553    -0.000
                 51 B    (  0  0  0)     2.943     1.557    -0.000
                 38 N    (  0 -1  0)     4.778     2.528    -0.000
                 40 N    (  0  0  0)     4.778     2.528    -0.000

 ATOM A  45 B    ATOM B     CELL      R(AB)/AU R(AB)/ANG    OVPOP(AB)
                 22 N    (  0  0  0)     2.926     1.549     0.000
                 26 N    (  0  1 -1)     2.926     1.549    -0.000
                 20 N    (  0  1 -1)     2.943     1.557    -0.000
                 38 N    (  0  0  0)     2.943     1.557     0.000
                 27 B    ( -1  1  0)     4.648     2.460     0.000
                  9 B    (  0  1  0)     4.648     2.460     0.000

 ATOM A  46 N    ATOM B     CELL      R(AB)/AU R(AB)/ANG    OVPOP(AB)
                 15 B    (  0  0  0)     2.928     1.550    -0.000
                 11 B    (  0  0  0)     2.928     1.550     0.000
                 53 B    (  0  0  0)     2.929     1.550    -0.000
                 17 B    (  0  0  0)     2.929     1.550     0.000
                 28 N    (  0  0  0)     4.784     2.532     0.000
                 10 N    (  0  0  0)     4.784     2.532    -0.000

 ATOM A  47 B    ATOM B     CELL      R(AB)/AU R(AB)/ANG    OVPOP(AB)
                 22 N    (  0  0  0)     2.926     1.549    -0.000
                 28 N    (  0  1  0)     2.926     1.549     0.000
                 40 N    (  0  1  0)     2.943     1.557    -0.000
                 24 N    (  0  0  0)     2.943     1.557    -0.000
                 25 B    (  0  1  0)     4.648     2.460    -0.000
                  9 B    (  0  1  0)     4.648     2.460     0.000

 ATOM A  48 N    ATOM B     CELL      R(AB)/AU R(AB)/ANG    OVPOP(AB)
                 13 B    (  0  0  0)     2.928     1.550     0.000
                  7 B    (  0  0  0)     2.928     1.550     0.000
                 17 B    (  0  0  0)     2.929     1.550     0.000
                 49 B    (  0  0  0)     2.929     1.550    -0.000
                 10 N    (  0  0  0)     4.784     2.532     0.000
                 26 N    (  0  0  0)     4.784     2.532    -0.000

 ATOM A  49 B    ATOM B     CELL      R(AB)/AU R(AB)/ANG    OVPOP(AB)
                 48 N    (  0  0  0)     2.929     1.550    -0.000
                 36 N    (  0  0  0)     2.929     1.550    -0.000
                 30 N    (  0  0  0)     2.929     1.550    -0.000
                 26 N    (  0  0  0)     2.935     1.553    -0.000
                 17 B    (  0  0  0)     4.776     2.528     0.000
                 53 B    (  0  0  0)     4.777     2.528    -0.000

 ATOM A  50 N    ATOM B     CELL      R(AB)/AU R(AB)/ANG    OVPOP(AB)
                 39 B    (  0  0  0)     2.929     1.550    -0.000
                 15 B    (  0  0  0)     2.929     1.550     0.000
                  3 B    (  0  0  0)     2.929     1.550    -0.000
                  1 B    (  1  0 -1)     2.933     1.552     0.000
                 34 N    (  0  0  0)     4.786     2.533    -0.000
                 52 N    (  0  0  0)     4.786     2.533     0.000

 ATOM A  51 B    ATOM B     CELL      R(AB)/AU R(AB)/ANG    OVPOP(AB)
                 28 N    (  0  0  0)     2.926     1.549    -0.000
                 26 N    (  0  0 -1)     2.926     1.549    -0.000
                 32 N    (  0  0 -1)     2.943     1.557    -0.000
                 44 N    (  0  0  0)     2.943     1.557    -0.000
                  9 B    (  0  0  0)     4.648     2.460     0.000
                 21 B    ( -1  0  0)     4.648     2.460     0.000

 ATOM A  52 N    ATOM B     CELL      R(AB)/AU R(AB)/ANG    OVPOP(AB)
                  3 B    (  0  0  0)     2.928     1.550     0.000
                  5 B    (  0  0  0)     2.928     1.550    -0.000
                 41 B    (  0  0  0)     2.929     1.550    -0.000
                 17 B    (  0  0  0)     2.929     1.550    -0.000
                 22 N    (  0  0  0)     4.784     2.532    -0.000
                 10 N    (  0  0  0)     4.784     2.532    -0.000

 ATOM A  53 B    ATOM B     CELL      R(AB)/AU R(AB)/ANG    OVPOP(AB)
                 30 N    (  0  0  0)     2.929     1.550    -0.000
                 46 N    (  0  0  0)     2.929     1.550    -0.000
                 34 N    (  0  0  0)     2.929     1.550    -0.000
                 28 N    (  0  0  0)     2.935     1.553     0.000
                 41 B    (  0  0  0)     4.776     2.528    -0.000
                 17 B    (  0  0  0)     4.776     2.528     0.000

 ATOM A  54 N    ATOM B     CELL      R(AB)/AU R(AB)/ANG    OVPOP(AB)
                  5 B    (  0  0  0)     2.929     1.550     0.000
                 37 B    (  0  0  0)     2.929     1.550     0.000
                 13 B    (  0  0  0)     2.929     1.550     0.000
                  1 B    (  1  0  0)     2.933     1.552     0.000
                 48 N    (  0  0  0)     4.786     2.533     0.000
                 36 N    (  0  0  0)     4.786     2.533    -0.000
 EIGENVECTORS IN FORTRAN UNIT  8
 TTTTTTTTTTTTTTTTTTTTTTTTTTTTTT END         TELAPSE    37067.87 TCPU    37060.80
 EEEEEEEEEE TERMINATION  DATE 23 03 2023 TIME 03:11:06.7
NODE    0 CPU TIME =     37060.803
NODE    1 CPU TIME =     37059.699
NODE    2 CPU TIME =     37059.629
NODE    3 CPU TIME =     37061.152
NODE    4 CPU TIME =     37031.988
NODE    5 CPU TIME =     37054.171
NODE    6 CPU TIME =     37048.598
NODE    7 CPU TIME =     37033.690
NODE    8 CPU TIME =     37057.619
NODE    9 CPU TIME =     37058.530
NODE   10 CPU TIME =     37059.577
NODE   11 CPU TIME =     37059.609
NODE   12 CPU TIME =     37061.699
NODE   13 CPU TIME =     37058.900
NODE   14 CPU TIME =     37058.888
NODE   15 CPU TIME =     37059.204
    TOTAL CPU TIME =    592883.757
