
         
 *******************************************************************************
 *                                                                             *
 *                               CRYSTAL17                                     *
 *                      public : 1.0.2 - March 1st, 2018                       *
 *                       HTTP://WWW.CRYSTAL.UNITO.IT                           *
 *                                                                             *
 *                              MAIN AUTHORS                                   *
 *                                                                             *
 *  R. DOVESI(1,11), V.R. SAUNDERS(2), C. ROETTI(1,11), R. ORLANDO(1,11),      *
 *  C.M. ZICOVICH-WILSON(1,3), F. PASCALE(4), B. CIVALLERI(1,11),              *
 *  K. DOLL(5), N.M. HARRISON(2,6), I.J. BUSH(7), Ph. D'ARCO(8),               *
 *  M. LLUNELL(9), M. CAUSA'(10), Y. NOEL(8), L. MASCHIO(1,11), A. ERBA(1,11)  *
 *  M. RE'RAT(14), S. CASASSA(1,11)                                            *
 *                                                                             *
 *        CONTRIBUTIONS TO THE CODE HAVE ALSO BEEN GIVEN BY                    *
 *                                                                             *
 *  M. FERRABONE(1,11), M. DE LA PIERRE(1,11), M. FERRERO(1,11),               *
 *  J. BAIMA(1,11), E. ALBANESE(1,11), M.F. PEINTINGER(12), R. BAST(13),       *
 *  B. KIRTMAN(15), V. LACIVITA(1,11), R. DEMICHELIS(1,16)                     *
 *  G. BRANDEBURG(17), S. SALUSTRO(1,11), G. SANSONE(1,11)                     *
 *  M.T. RUGGIERO(18)                                                          *
 *                                                                             *
 * (1) THEORETICAL CHEMISTRY GROUP - UNIVERSITA' DI TORINO - TORINO (ITALY)    *
 * (2) COMPUTATIONAL SCIENCE & ENGINEERING DEPARTMENT - STFC DARESBURY (UK)    *
 * (3) UNIVERSIDAD AUTONOMA DEL ESTADO DE MORELOS - CUERNAVACA (MEXICO)        *
 * (4) UNIVERSITE' DE LORRAINE - NANCY (FRANCE)                                *
 * (5) UNIVERSITAET STUTTGART- STUTTGART (GERMANY)                             *
 * (6) IMPERIAL COLLEGE - LONDON (UK)                                          *
 * (7) OXFORD E-RESEARCH CENTRE - OXFORD (UK)                                  *
 * (8) UPMC - SORBONNE UNIVERSITES - PARIS (FRANCE)                            *
 * (9) UNIVERSIDAD DE BARCELONA - BARCELONA (SPAIN)                            *
 *(10) UNIVERSITA' DI NAPOLI "FEDERICO II" - NAPOLI (ITALY)                    *
 *(11) NIS - NANOSTRUCTURED INTERFACES AND SURFACES - TORINO (ITALY)           *
 *(12) MPI FUER CHEMISCHE ENERGIEKONVERSION - MUELHEIM AN DER RUHR (GERMANY)   *
 *(13) UNIVERSITY OF TROMSO - TROMSO (NORWAY)                                  *
 *(14) UNIVERSITE' DE PAU ET DES PAYS DE L'ADOUR - PAU (FRANCE)                *
 *(15) UNIVERSITY OF CALIFORNIA SANTA BARBARA - SANTA BARBARA (USA)            *
 *(16) CURTIN UNIVERSITY - PERTH (AUSTRALIA)                                   *
 *(17) UNIVERSITY COLLEGE LONDON - LONDON (UK)                                 *
 *(18) CAMBRIDGE UNIVERSITY - CAMBRIDGE (UK)                                   *
 *                                                                             *
 *******************************************************************************
 EEEEEEEEEE STARTING  DATE 22 03 2023 TIME 14:14:36.3
 substitutionscBN_O_N_141                                                        

 CRYSTAL CALCULATION
 (INPUT ACCORDING TO THE INTERNATIONAL TABLES FOR X-RAY CRYSTALLOGRAPHY)
 CRYSTAL FAMILY                       :  TRICLINIC   
 CRYSTAL CLASS  (GROTH - 1921)        :  TRICLINIC PEDIAL                     

 SPACE GROUP (NONCENTROSYMMETRIC)     :  P 1             

 LATTICE PARAMETERS  (ANGSTROMS AND DEGREES) - CONVENTIONAL CELL
        A           B           C        ALPHA        BETA       GAMMA
     7.59965     7.59952     7.59966    60.00060    59.99890    60.00030


 NUMBER OF IRREDUCIBLE ATOMS IN THE CONVENTIONAL CELL:   54

 INPUT COORDINATES

 ATOM AT. N.              COORDINATES
   1   5     2.500030000000E-01  2.499990000000E-01  2.500050000000E-01
   2   8     5.000030000000E-01  4.999950000000E-01  5.000120000000E-01
   3   5     2.497810000000E-01  2.497770000000E-01  5.836080000000E-01
   4   7     5.000650000000E-01  5.000730000000E-01  8.327690000000E-01
   5   5     2.497760000000E-01  2.497770000000E-01  9.168350000000E-01
   6   7     5.000770000000E-01  5.000720000000E-01  1.670850000000E-01
   7   5     2.497850000000E-01  5.836020000000E-01  2.497810000000E-01
   8   7     5.000670000000E-01  8.327710000000E-01  5.000700000000E-01
   9   5     2.354100000000E-01  5.881990000000E-01  5.881930000000E-01
  10   7     4.997150000000E-01  8.334310000000E-01  8.334260000000E-01
  11   5     2.497740000000E-01  5.836090000000E-01  9.168380000000E-01
  12   7     5.000760000000E-01  8.327650000000E-01  1.670870000000E-01
  13   5     2.497840000000E-01  9.168280000000E-01  2.497790000000E-01
  14   7     5.000680000000E-01  1.670930000000E-01  5.000710000000E-01
  15   5     2.497770000000E-01  9.168330000000E-01  5.836120000000E-01
  16   7     5.000660000000E-01  1.670950000000E-01  8.327640000000E-01
  17   5     2.494470000000E-01  9.168500000000E-01  9.168540000000E-01
  18   7     5.001060000000E-01  1.666320000000E-01  1.666290000000E-01
  19   5     5.836090000000E-01  2.497750000000E-01  2.497830000000E-01
  20   7     8.327660000000E-01  5.000740000000E-01  5.000710000000E-01
  21   5     5.881930000000E-01  2.354030000000E-01  5.882050000000E-01
  22   7     8.334250000000E-01  4.997210000000E-01  8.334240000000E-01
  23   5     5.836080000000E-01  2.497750000000E-01  9.168380000000E-01
  24   7     8.327680000000E-01  5.000700000000E-01  1.670900000000E-01
  25   5     5.882140000000E-01  5.882030000000E-01  2.353820000000E-01
  26   7     8.334270000000E-01  8.334300000000E-01  4.997150000000E-01
  27   5     5.881960000000E-01  5.882030000000E-01  5.882070000000E-01
  28   7     8.334250000000E-01  8.334310000000E-01  8.334240000000E-01
  29   5     5.838680000000E-01  5.838680000000E-01  9.161300000000E-01
  30   7     8.333300000000E-01  8.333320000000E-01  1.666670000000E-01
  31   5     5.836130000000E-01  9.168310000000E-01  2.497800000000E-01
  32   7     8.327610000000E-01  1.670920000000E-01  5.000720000000E-01
  33   5     5.838710000000E-01  9.161250000000E-01  5.838730000000E-01
  34   7     8.333270000000E-01  1.666720000000E-01  8.333300000000E-01
  35   5     5.838640000000E-01  9.161330000000E-01  9.161360000000E-01
  36   7     8.333290000000E-01  1.666710000000E-01  1.666670000000E-01
  37   5     9.168340000000E-01  2.497740000000E-01  2.497830000000E-01
  38   7     1.670960000000E-01  5.000730000000E-01  5.000670000000E-01
  39   5     9.168320000000E-01  2.497760000000E-01  5.836120000000E-01
  40   7     1.670820000000E-01  5.000770000000E-01  8.327630000000E-01
  41   5     9.168510000000E-01  2.494470000000E-01  9.168530000000E-01
  42   7     1.666300000000E-01  5.001100000000E-01  1.666290000000E-01
  43   5     9.168370000000E-01  5.836060000000E-01  2.497810000000E-01
  44   7     1.670980000000E-01  8.327630000000E-01  5.000660000000E-01
  45   5     9.161310000000E-01  5.838670000000E-01  5.838700000000E-01
  46   7     1.666660000000E-01  8.333350000000E-01  8.333280000000E-01
  47   6     9.161350000000E-01  5.838630000000E-01  9.161360000000E-01
  48   7     1.666690000000E-01  8.333320000000E-01  1.666660000000E-01
  49   5     9.168540000000E-01  9.168480000000E-01  2.494500000000E-01
  50   7     1.666270000000E-01  1.666330000000E-01  5.001060000000E-01
  51   5     9.161360000000E-01  9.161320000000E-01  5.838660000000E-01
  52   7     1.666650000000E-01  1.666720000000E-01  8.333270000000E-01
  53   5     9.168510000000E-01  9.168500000000E-01  9.168540000000E-01
  54   7     1.666310000000E-01  1.666320000000E-01  1.666300000000E-01

 *******************************************************************************

 << INFORMATION >>: FROM NOW ON, ALL COORDINATES REFER TO THE PRIMITIVE CELL

 *******************************************************************************

 LATTICE PARAMETERS  (ANGSTROMS AND DEGREES) - PRIMITIVE CELL
       A          B          C        ALPHA      BETA     GAMMA        VOLUME
    7.59965    7.59952    7.59966    60.00060  59.99890  60.00030    310.354736

 COORDINATES OF THE EQUIVALENT ATOMS (FRACTIONAL UNITS)

 N. ATOM EQUIV AT. N.          X                  Y                  Z

   1   1   1    5 B     2.50003000000E-01  2.49999000000E-01  2.50005000000E-01

   2   2   1    8 O    -4.99997000000E-01  4.99995000000E-01 -4.99988000000E-01

   3   3   1    5 B     2.49781000000E-01  2.49777000000E-01 -4.16392000000E-01

   4   4   1    7 N    -4.99935000000E-01 -4.99927000000E-01 -1.67231000000E-01

   5   5   1    5 B     2.49776000000E-01  2.49777000000E-01 -8.31650000000E-02

   6   6   1    7 N    -4.99923000000E-01 -4.99928000000E-01  1.67085000000E-01

   7   7   1    5 B     2.49785000000E-01 -4.16398000000E-01  2.49781000000E-01

   8   8   1    7 N    -4.99933000000E-01 -1.67229000000E-01 -4.99930000000E-01

   9   9   1    5 B     2.35410000000E-01 -4.11801000000E-01 -4.11807000000E-01

  10  10   1    7 N     4.99715000000E-01 -1.66569000000E-01 -1.66574000000E-01

  11  11   1    5 B     2.49774000000E-01 -4.16391000000E-01 -8.31620000000E-02

  12  12   1    7 N    -4.99924000000E-01 -1.67235000000E-01  1.67087000000E-01

  13  13   1    5 B     2.49784000000E-01 -8.31720000000E-02  2.49779000000E-01

  14  14   1    7 N    -4.99932000000E-01  1.67093000000E-01 -4.99929000000E-01

  15  15   1    5 B     2.49777000000E-01 -8.31670000000E-02 -4.16388000000E-01

  16  16   1    7 N    -4.99934000000E-01  1.67095000000E-01 -1.67236000000E-01

  17  17   1    5 B     2.49447000000E-01 -8.31500000000E-02 -8.31460000000E-02

  18  18   1    7 N    -4.99894000000E-01  1.66632000000E-01  1.66629000000E-01

  19  19   1    5 B    -4.16391000000E-01  2.49775000000E-01  2.49783000000E-01

  20  20   1    7 N    -1.67234000000E-01 -4.99926000000E-01 -4.99929000000E-01

  21  21   1    5 B    -4.11807000000E-01  2.35403000000E-01 -4.11795000000E-01

  22  22   1    7 N    -1.66575000000E-01  4.99721000000E-01 -1.66576000000E-01

  23  23   1    5 B    -4.16392000000E-01  2.49775000000E-01 -8.31620000000E-02

  24  24   1    7 N    -1.67232000000E-01 -4.99930000000E-01  1.67090000000E-01

  25  25   1    5 B    -4.11786000000E-01 -4.11797000000E-01  2.35382000000E-01

  26  26   1    7 N    -1.66573000000E-01 -1.66570000000E-01  4.99715000000E-01

  27  27   1    5 B    -4.11804000000E-01 -4.11797000000E-01 -4.11793000000E-01

  28  28   1    7 N    -1.66575000000E-01 -1.66569000000E-01 -1.66576000000E-01

  29  29   1    5 B    -4.16132000000E-01 -4.16132000000E-01 -8.38700000000E-02

  30  30   1    7 N    -1.66670000000E-01 -1.66668000000E-01  1.66667000000E-01

  31  31   1    5 B    -4.16387000000E-01 -8.31690000000E-02  2.49780000000E-01

  32  32   1    7 N    -1.67239000000E-01  1.67092000000E-01 -4.99928000000E-01

  33  33   1    5 B    -4.16129000000E-01 -8.38750000000E-02 -4.16127000000E-01

  34  34   1    7 N    -1.66673000000E-01  1.66672000000E-01 -1.66670000000E-01

  35  35   1    5 B    -4.16136000000E-01 -8.38670000000E-02 -8.38640000000E-02

  36  36   1    7 N    -1.66671000000E-01  1.66671000000E-01  1.66667000000E-01

  37  37   1    5 B    -8.31660000000E-02  2.49774000000E-01  2.49783000000E-01

  38  38   1    7 N     1.67096000000E-01 -4.99927000000E-01 -4.99933000000E-01

  39  39   1    5 B    -8.31680000000E-02  2.49776000000E-01 -4.16388000000E-01

  40  40   1    7 N     1.67082000000E-01 -4.99923000000E-01 -1.67237000000E-01

  41  41   1    5 B    -8.31490000000E-02  2.49447000000E-01 -8.31470000000E-02

  42  42   1    7 N     1.66630000000E-01 -4.99890000000E-01  1.66629000000E-01

  43  43   1    5 B    -8.31630000000E-02 -4.16394000000E-01  2.49781000000E-01

  44  44   1    7 N     1.67098000000E-01 -1.67237000000E-01 -4.99934000000E-01

  45  45   1    5 B    -8.38690000000E-02 -4.16133000000E-01 -4.16130000000E-01

  46  46   1    7 N     1.66666000000E-01 -1.66665000000E-01 -1.66672000000E-01

  47  47   1    6 C    -8.38650000000E-02 -4.16137000000E-01 -8.38640000000E-02

  48  48   1    7 N     1.66669000000E-01 -1.66668000000E-01  1.66666000000E-01

  49  49   1    5 B    -8.31460000000E-02 -8.31520000000E-02  2.49450000000E-01

  50  50   1    7 N     1.66627000000E-01  1.66633000000E-01 -4.99894000000E-01

  51  51   1    5 B    -8.38640000000E-02 -8.38680000000E-02 -4.16134000000E-01

  52  52   1    7 N     1.66665000000E-01  1.66672000000E-01 -1.66673000000E-01

  53  53   1    5 B    -8.31490000000E-02 -8.31500000000E-02 -8.31460000000E-02

  54  54   1    7 N     1.66631000000E-01  1.66632000000E-01  1.66630000000E-01

 NUMBER OF SYMMETRY OPERATORS         :    1
 *******************************************************************************
 * GEOMETRY EDITING - INPUT COORDINATES ARE GIVEN IN ANGSTROM         
 *******************************************************************************

 GCALCO - MAX INDICES DIRECT LATTICE VECTOR    14    14    14
 NO.OF VECTORS CREATED 6999 STARS 3499 RMAX   151.98550 BOHR

 GEOMETRY FOR WAVE FUNCTION - DIMENSIONALITY OF THE SYSTEM    3
 (NON PERIODIC DIRECTION: LATTICE PARAMETER FORMALLY SET TO 500)
 *******************************************************************************
 LATTICE PARAMETERS (ANGSTROMS AND DEGREES) - BOHR = 0.5291772083 ANGSTROM
 PRIMITIVE CELL - CENTRING CODE 1/0 VOLUME=   310.354736 - DENSITY  3.629 g/cm^3
         A              B              C           ALPHA      BETA       GAMMA 
     7.59964700     7.59952000     7.59966500    60.000600  59.998900  60.000300
 *******************************************************************************
 ATOMS IN THE ASYMMETRIC UNIT   54 - ATOMS IN THE UNIT CELL:   54
     ATOM                 X/A                 Y/B                 Z/C    
 *******************************************************************************
      1 T   5 B     2.500030000000E-01  2.499990000000E-01  2.500050000000E-01
      2 T   8 O    -4.999970000000E-01  4.999950000000E-01 -4.999880000000E-01
      3 T   5 B     2.497810000000E-01  2.497770000000E-01 -4.163920000000E-01
      4 T   7 N    -4.999350000000E-01 -4.999270000000E-01 -1.672310000000E-01
      5 T   5 B     2.497760000000E-01  2.497770000000E-01 -8.316500000000E-02
      6 T   7 N    -4.999230000000E-01 -4.999280000000E-01  1.670850000000E-01
      7 T   5 B     2.497850000000E-01 -4.163980000000E-01  2.497810000000E-01
      8 T   7 N    -4.999330000000E-01 -1.672290000000E-01 -4.999300000000E-01
      9 T   5 B     2.354100000000E-01 -4.118010000000E-01 -4.118070000000E-01
     10 T   7 N     4.997150000000E-01 -1.665690000000E-01 -1.665740000000E-01
     11 T   5 B     2.497740000000E-01 -4.163910000000E-01 -8.316200000000E-02
     12 T   7 N    -4.999240000000E-01 -1.672350000000E-01  1.670870000000E-01
     13 T   5 B     2.497840000000E-01 -8.317200000000E-02  2.497790000000E-01
     14 T   7 N    -4.999320000000E-01  1.670930000000E-01 -4.999290000000E-01
     15 T   5 B     2.497770000000E-01 -8.316700000000E-02 -4.163880000000E-01
     16 T   7 N    -4.999340000000E-01  1.670950000000E-01 -1.672360000000E-01
     17 T   5 B     2.494470000000E-01 -8.315000000000E-02 -8.314600000000E-02
     18 T   7 N    -4.998940000000E-01  1.666320000000E-01  1.666290000000E-01
     19 T   5 B    -4.163910000000E-01  2.497750000000E-01  2.497830000000E-01
     20 T   7 N    -1.672340000000E-01 -4.999260000000E-01 -4.999290000000E-01
     21 T   5 B    -4.118070000000E-01  2.354030000000E-01 -4.117950000000E-01
     22 T   7 N    -1.665750000000E-01  4.997210000000E-01 -1.665760000000E-01
     23 T   5 B    -4.163920000000E-01  2.497750000000E-01 -8.316200000000E-02
     24 T   7 N    -1.672320000000E-01 -4.999300000000E-01  1.670900000000E-01
     25 T   5 B    -4.117860000000E-01 -4.117970000000E-01  2.353820000000E-01
     26 T   7 N    -1.665730000000E-01 -1.665700000000E-01  4.997150000000E-01
     27 T   5 B    -4.118040000000E-01 -4.117970000000E-01 -4.117930000000E-01
     28 T   7 N    -1.665750000000E-01 -1.665690000000E-01 -1.665760000000E-01
     29 T   5 B    -4.161320000000E-01 -4.161320000000E-01 -8.387000000000E-02
     30 T   7 N    -1.666700000000E-01 -1.666680000000E-01  1.666670000000E-01
     31 T   5 B    -4.163870000000E-01 -8.316900000000E-02  2.497800000000E-01
     32 T   7 N    -1.672390000000E-01  1.670920000000E-01 -4.999280000000E-01
     33 T   5 B    -4.161290000000E-01 -8.387500000000E-02 -4.161270000000E-01
     34 T   7 N    -1.666730000000E-01  1.666720000000E-01 -1.666700000000E-01
     35 T   5 B    -4.161360000000E-01 -8.386700000000E-02 -8.386400000000E-02
     36 T   7 N    -1.666710000000E-01  1.666710000000E-01  1.666670000000E-01
     37 T   5 B    -8.316600000000E-02  2.497740000000E-01  2.497830000000E-01
     38 T   7 N     1.670960000000E-01 -4.999270000000E-01 -4.999330000000E-01
     39 T   5 B    -8.316800000000E-02  2.497760000000E-01 -4.163880000000E-01
     40 T   7 N     1.670820000000E-01 -4.999230000000E-01 -1.672370000000E-01
     41 T   5 B    -8.314900000000E-02  2.494470000000E-01 -8.314700000000E-02
     42 T   7 N     1.666300000000E-01 -4.998900000000E-01  1.666290000000E-01
     43 T   5 B    -8.316300000000E-02 -4.163940000000E-01  2.497810000000E-01
     44 T   7 N     1.670980000000E-01 -1.672370000000E-01 -4.999340000000E-01
     45 T   5 B    -8.386900000000E-02 -4.161330000000E-01 -4.161300000000E-01
     46 T   7 N     1.666660000000E-01 -1.666650000000E-01 -1.666720000000E-01
     47 T   6 C    -8.386500000000E-02 -4.161370000000E-01 -8.386400000000E-02
     48 T   7 N     1.666690000000E-01 -1.666680000000E-01  1.666660000000E-01
     49 T   5 B    -8.314600000000E-02 -8.315200000000E-02  2.494500000000E-01
     50 T   7 N     1.666270000000E-01  1.666330000000E-01 -4.998940000000E-01
     51 T   5 B    -8.386400000000E-02 -8.386800000000E-02 -4.161340000000E-01
     52 T   7 N     1.666650000000E-01  1.666720000000E-01 -1.666730000000E-01
     53 T   5 B    -8.314900000000E-02 -8.315000000000E-02 -8.314600000000E-02
     54 T   7 N     1.666310000000E-01  1.666320000000E-01  1.666300000000E-01

 T = ATOM BELONGING TO THE ASYMMETRIC UNIT

 ****    1 SYMMOPS - TRANSLATORS IN FRACTIONAL UNITS
 **** MATRICES AND TRANSLATORS IN THE CRYSTALLOGRAPHIC REFERENCE FRAME
   V INV                    ROTATION MATRICES                   TRANSLATORS
   1   1  1.00  0.00  0.00  0.00  1.00  0.00  0.00  0.00  1.00  0.00  0.00  0.00

 DIRECT LATTICE VECTORS CARTESIAN COMPONENTS (ANGSTROM)
          X                    Y                    Z
   0.658150725753E+01   0.379978903936E+01   0.000000000000E+00
   0.000000000000E+00   0.759952000000E+01   0.000000000000E+00
   0.219403327392E+01   0.379976357845E+01   0.620507234873E+01


 CARTESIAN COORDINATES - PRIMITIVE CELL
 *******************************************************************************
 *      ATOM          X(ANGSTROM)         Y(ANGSTROM)         Z(ANGSTROM)
 *******************************************************************************
    1     5 B    -4.387591409981E+00  1.913757988165E-06  1.551299112545E+00
    2     8 O     2.193783064725E+00 -3.799728270617E+00 -3.102461713498E+00
    3     5 B     7.303575612980E-01  1.265109257121E+00 -2.583742485433E+00
    4     7 N     2.924271048307E+00 -2.534501992061E+00 -1.037680453951E+00
    5     5 B     1.461435779532E+00  2.531274076133E+00 -5.160448418823E-01
    6     7 N    -2.923656803134E+00  2.535588727022E+00  1.036774513388E+00
    7     5 B     2.191989615517E+00 -1.266185877373E+00  1.549909176339E+00
    8     7 N     2.194331535120E+00 -1.270326830310E+00 -3.102101819301E+00
    9     5 B     6.458343630609E-01 -3.799750837716E+00 -2.555292228714E+00
   10     7 N     2.923409000628E+00  2.531460673380E-05 -1.033603721418E+00
   11     5 B     1.461429198617E+00 -2.531279163514E+00 -5.160262266652E-01
   12     7 N    -2.923658996575E+00 -2.535620365880E+00  1.036786923533E+00
   13     5 B     2.191978645943E+00  1.266160374830E+00  1.549896766194E+00
   14     7 N     2.194340310660E+00  1.270367494682E+00 -3.102095614229E+00
   15     5 B     7.303400114021E-01 -1.265105329861E+00 -2.583717665144E+00
   16     7 N     2.924266659648E+00  2.534529838351E+00 -1.037711479312E+00
   17     5 B     1.459312150276E+00  1.074600727150E-05 -5.159269455076E-01
   18     7 N    -2.924466418597E+00 -1.772008796431E-05  1.033945000397E+00
   19     5 B    -2.192448175211E+00  1.265088496029E+00  1.549921586483E+00
   20     7 N    -3.479371381662E-03 -2.534499983287E+00  3.102976734503E+00
   21     5 B     2.967704566295E+00  2.459235478199E+00 -2.555217767846E+00
   22     7 N    -1.461787858061E+00  2.531740456844E+00 -1.033616131562E+00
   23     5 B    -2.922947165105E+00 -2.758838885390E-05 -5.160262266652E-01
   24     7 N    -7.340376019518E-01  3.799748142094E+00  1.036805538750E+00
   25     5 B    -2.193736607468E+00 -3.799763516179E+00  1.460562339589E+00
   26     7 N     8.992907005047E-05  4.550553678767E-06  3.100767728746E+00
   27     5 B     2.967728698883E+00 -2.459154866906E+00 -2.555205357701E+00
   28     7 N    -1.461787858061E+00 -2.531743723956E+00 -1.033616131562E+00
   29     5 B    -2.922789348776E+00  2.537216559508E+00 -5.204194178881E-01
   30     7 N    -7.312668709479E-01 -1.266612442220E+00  1.034180793146E+00
   31     5 B    -2.192428431282E+00 -1.265122290986E+00  1.549902971266E+00
   32     7 N    -3.510084884677E-03  2.534501448891E+00  3.102982939575E+00
   33     5 B     2.929754739785E+00 -7.332410741836E-06 -2.582098141261E+00
   34     7 N    -1.462639084900E+00 -1.636738276886E-06 -1.034199408363E+00
   35     5 B     3.658704746928E+00  1.262547711094E+00 -5.203821874540E-01
   36     7 N    -7.312734524552E-01  1.266600155271E+00  1.034180793146E+00
   37     5 B     6.745806806507E-04  2.531265599149E+00  1.549921586483E+00
   38     7 N     2.873899971925E-03  2.535617109214E+00 -3.102120434518E+00
   39     5 B    -1.460939922457E+00 -1.910421082166E-05 -2.583717665144E+00
   40     7 N     7.327278529719E-01 -3.799759546255E+00 -1.037717684385E+00
   41     5 B    -7.296730315836E-01  1.263789864348E+00 -5.159331505800E-01
   42     7 N     1.462266124724E+00 -2.532614399857E+00  1.033945000397E+00
   43     5 B     6.899371358753E-04 -2.531287640371E+00  1.549909176339E+00
   44     7 N     2.884868953165E-03 -2.535614782172E+00 -3.102126639591E+00
   45     5 B    -1.464987498460E+00  2.537228818996E+00 -2.582116756478E+00
   46     7 N     7.312295747525E-01 -1.266592555914E+00 -1.034211818508E+00
   47     6 C    -7.359585126374E-01  3.799745865231E+00 -5.203821874540E-01
   48     7 N     1.462603982738E+00  1.636607805482E-06  1.034174588074E+00
   49     5 B     7.559774558382E-05 -1.521861350776E-06  1.547855297391E+00
   50     7 N    -1.272596341758E-04 -7.498660961097E-07 -3.101878436697E+00
   51     5 B    -1.464963367057E+00 -2.537232868313E+00 -2.582141576767E+00
   52     7 N     7.312207992120E-01  1.266601042773E+00 -1.034218023580E+00
   53     5 B    -7.296708375504E-01 -1.263783889328E+00 -5.159269455076E-01
   54     7 N     1.462274900264E+00  2.532640469135E+00  1.033951205469E+00

 *******************************************************************************
 LOCAL ATOMIC FUNCTIONS BASIS SET
 *******************************************************************************
   ATOM   X(AU)   Y(AU)   Z(AU)  N. TYPE  EXPONENT  S COEF   P COEF   D/F/G COEF
 *******************************************************************************
   1 B   -8.291   0.000   2.932
                                  1 S  
                                         8.393E+02-5.593E-03 0.000E+00 0.000E+00
                                         1.263E+02-4.157E-02 0.000E+00 0.000E+00
                                         2.862E+01-1.830E-01 0.000E+00 0.000E+00
                                         7.879E+00-4.654E-01 0.000E+00 0.000E+00
                                         2.409E+00-4.417E-01 0.000E+00 0.000E+00
                                  2 S  
                                         1.028E+00 1.000E+00 0.000E+00 0.000E+00
                                  3 S  
                                         2.245E-01 1.000E+00 0.000E+00 0.000E+00
                           4-     6 P  
                                         6.033E+00 0.000E+00-3.560E-02 0.000E+00
                                         1.250E+00 0.000E+00-1.990E-01 0.000E+00
                                         3.387E-01 0.000E+00-5.085E-01 0.000E+00
                           7-     9 P  
                                         2.288E-01 0.000E+00 1.000E+00 0.000E+00
                          10-    14 D  
                                         5.684E-01 0.000E+00 0.000E+00 1.000E+00
   2 O    4.146  -7.180  -5.863
                                 15 S  
                                         2.266E+03-5.343E-03 0.000E+00 0.000E+00
                                         3.409E+02-3.989E-02 0.000E+00 0.000E+00
                                         7.736E+01-1.785E-01 0.000E+00 0.000E+00
                                         2.148E+01-4.643E-01 0.000E+00 0.000E+00
                                         6.659E+00-4.431E-01 0.000E+00 0.000E+00
                                 16 S  
                                         8.479E-01 1.000E+00 0.000E+00 0.000E+00
                                 17 S  
                                         2.791E-01 1.000E+00 0.000E+00 0.000E+00
                          18-    20 P  
                                         1.772E+01 0.000E+00 4.339E-02 0.000E+00
                                         3.864E+00 0.000E+00 2.309E-01 0.000E+00
                                         1.048E+00 0.000E+00 5.138E-01 0.000E+00
                          21-    23 P  
                                         2.624E-01 0.000E+00 1.000E+00 0.000E+00
                          24-    28 D  
                                         4.790E-01 0.000E+00 0.000E+00 1.000E+00
   3 B    1.380   2.391  -4.883
   4 N    5.526  -4.790  -1.961
                                 43 S  
                                         1.713E+03-5.393E-03 0.000E+00 0.000E+00
                                         2.576E+02-4.022E-02 0.000E+00 0.000E+00
                                         5.846E+01-1.793E-01 0.000E+00 0.000E+00
                                         1.620E+01-4.638E-01 0.000E+00 0.000E+00
                                         5.005E+00-4.417E-01 0.000E+00 0.000E+00
                                 44 S  
                                         6.349E-01 1.000E+00 0.000E+00 0.000E+00
                                 45 S  
                                         2.108E-01 1.000E+00 0.000E+00 0.000E+00
                          46-    48 P  
                                         1.357E+01 0.000E+00-4.007E-02 0.000E+00
                                         2.926E+00 0.000E+00-2.181E-01 0.000E+00
                                         7.993E-01 0.000E+00-5.129E-01 0.000E+00
                          49-    51 P  
                                         2.392E-01 0.000E+00 1.000E+00 0.000E+00
                          52-    56 D  
                                         5.120E-01 0.000E+00 0.000E+00 1.000E+00
   5 B    2.762   4.783  -0.975
   6 N   -5.525   4.792   1.959
   7 B    4.142  -2.393   2.929
   8 N    4.147  -2.401  -5.862
   9 B    1.220  -7.180  -4.829
  10 N    5.524   0.000  -1.953
  11 B    2.762  -4.783  -0.975
  12 N   -5.525  -4.792   1.959
  13 B    4.142   2.393   2.929
  14 N    4.147   2.401  -5.862
  15 B    1.380  -2.391  -4.883
  16 N    5.526   4.790  -1.961
  17 B    2.758   0.000  -0.975
  18 N   -5.526  -0.000   1.954
  19 B   -4.143   2.391   2.929
  20 N   -0.007  -4.790   5.864
  21 B    5.608   4.647  -4.829
  22 N   -2.762   4.784  -1.953
  23 B   -5.524  -0.000  -0.975
  24 N   -1.387   7.180   1.959
  25 B   -4.146  -7.181   2.760
  26 N    0.000   0.000   5.860
  27 B    5.608  -4.647  -4.829
  28 N   -2.762  -4.784  -1.953
  29 B   -5.523   4.795  -0.983
  30 N   -1.382  -2.394   1.954
  31 B   -4.143  -2.391   2.929
  32 N   -0.007   4.790   5.864
  33 B    5.536  -0.000  -4.879
  34 N   -2.764  -0.000  -1.954
  35 B    6.914   2.386  -0.983
  36 N   -1.382   2.394   1.954
  37 B    0.001   4.783   2.929
  38 N    0.005   4.792  -5.862
  39 B   -2.761  -0.000  -4.883
  40 N    1.385  -7.181  -1.961
  41 B   -1.379   2.388  -0.975
  42 N    2.763  -4.786   1.954
  43 B    0.001  -4.783   2.929
  44 N    0.005  -4.792  -5.862
  45 B   -2.768   4.795  -4.879
  46 N    1.382  -2.394  -1.954
  47 C   -1.391   7.180  -0.983
                                645 S  
                                         1.238E+03 5.457E-03 0.000E+00 0.000E+00
                                         1.863E+02 4.064E-02 0.000E+00 0.000E+00
                                         4.225E+01 1.803E-01 0.000E+00 0.000E+00
                                         1.168E+01 4.632E-01 0.000E+00 0.000E+00
                                         3.593E+00 4.409E-01 0.000E+00 0.000E+00
                                646 S  
                                         4.687E-01 1.000E+00 0.000E+00 0.000E+00
                                647 S  
                                         2.355E-01 1.000E+00 0.000E+00 0.000E+00
                         648-   650 P  
                                         9.468E+00 0.000E+00 3.839E-02 0.000E+00
                                         2.010E+00 0.000E+00 2.112E-01 0.000E+00
                                         5.477E-01 0.000E+00 5.133E-01 0.000E+00
                         651-   653 P  
                                         2.105E-01 0.000E+00 1.000E+00 0.000E+00
                         654-   658 D  
                                         5.286E-01 0.000E+00 0.000E+00 1.000E+00
  48 N    2.764   0.000   1.954
  49 B    0.000  -0.000   2.925
  50 N   -0.000  -0.000  -5.862
  51 B   -2.768  -4.795  -4.880
  52 N    1.382   2.394  -1.954
  53 B   -1.379  -2.388  -0.975
  54 N    2.763   4.786   1.954
 INFORMATION **** SET_MPP **** PCRYSTAL CALCULATION
 INFORMATION **** READM2 **** NEW DEFAULT: FOCK/KS MATRIX MIXING SET TO 30 %
 INFORMATION **** READM2 **** NEW DEFAULT: FULL DIRECT SCF MODE
 INFORMATION **** READM2 **** NEW DEFAULT: COULOMB BIPOLAR BUFFER SET TO 32 Mb
 INFORMATION **** READM2 **** NEW DEFAULT: EXCHANGE BIPOLAR BUFFER SET TO 32 Mb

 *******************************************************************************
 NEW DEFAULT: DFT INTEGRATION GRID INCREASED TO XLGRID
 NEW DEFAULT: DIIS ACCELERATOR ACTIVE
 USE KEYWORD NODIIS TO TURN IT OFF
 *******************************************************************************

 WARNING **** RDDFTP **** HSE06-HJS ACTIVE
 RANGE SEPARATION - OMEGA:   0.110000000000000     
 INFORMATION **** DFTD3_INPUT **** PERFORM LATEST DISPERSION CORRECTION DFT-D3(BJ) WITH AUTOMATIC PARAMETER SETUP
 PLEASE CITE:
 (1) DFT-D3 Reference
  S. Grimme, J. Antony, S. Ehrlich, and H. Krieg, J. Chem. Phys. 132 (2010), 154104
 (2) BJ-Damping Reference
  S. Grimme, S. Ehrlich, and L. Goerigk, J. Comput. Chem. 32 (2011), 1456-1465
 (3) General DFT-D Review
  S. Grimme, A. Hansen, J. G. Brandenburg, and C. Bannwarth,
  Chem. Rev. 116 (2016), 5105-5154

 INFORMATION **** TOLINTEG **** COULOMB AND EXCHANGE SERIES TOLERANCES MODIFIED
 INFORMATION **** TOLDEE **** SCF TOL ON TOTAL ENERGY SET TO           7
 INFORMATION **** READM2 **** FULL DIRECT SCF (MONO AND BIEL INT) SELECTED
 INFORMATION **** BIPOSIZE **** COULOMB BIPOLAR BUFFER SET TO   110000000
 INFORMATION **** EXCHSIZE **** EXCHANGE BIPOLAR BUFFER SIZE SET TO   110000000
 INFORMATION **** MAXCYCLE **** MAX NUMBER OF SCF CYCLES SET TO         800
 INFORMATION **** DIIS **** DIIS FOR SCF ACTIVE
 INFORMATION **** DIIS **** LEVEL SHIFTER DISABLED
 INFORMATION **** PPAN ****  MULLIKEN POPULATION ANALYSIS AT THE END OF SCF
 *******************************************************************************
 N. OF ATOMS PER CELL        54  COULOMB OVERLAP TOL         (T1) 10**   -7
 NUMBER OF SHELLS           324  COULOMB PENETRATION TOL     (T2) 10**   -7
 NUMBER OF AO               756  EXCHANGE OVERLAP TOL        (T3) 10**   -7
 N. OF ELECTRONS PER CELL   326  EXCHANGE PSEUDO OVP (F(G))  (T4) 10**   -9
 CORE ELECTRONS PER CELL    108  EXCHANGE PSEUDO OVP (P(G))  (T5) 10**  -30
 N. OF SYMMETRY OPERATORS     1  POLE ORDER IN MONO ZONE                  4
 *******************************************************************************
 TYPE OF CALCULATION :  UNRESTRICTED OPEN SHELL
 KOHN-SHAM HAMILTONIAN

 (EXCHANGE)[CORRELATION] FUNCTIONAL:(HSE06 SR/GGA)[PERDEW-BURKE-ERNZERHOF]

 RANGE-SEPARATED HYBRID FUNCTIONAL 
 OMEGA (SHORT-RANGE)[LONG-RANGE]:(    0.1100)[    0.0000]

 HYBRID EXCHANGE - PERCENTAGE OF FOCK EXCHANGE    25.0000

 SPIN POLARIZED DFT SELECTED

 CAPPA:IS1  6;IS2  6;IS3  6; K PTS MONK NET 112; SYMMOPS:K SPACE   2;G SPACE   1

 *******************************************************************************
 MAX NUMBER OF SCF CYCLES     800  CONVERGENCE ON DELTAP        10**-17
 WEIGHT OF F(I) IN F(I+1)      30% CONVERGENCE ON ENERGY        10**- 7
 SHRINK. FACT.(MONKH.)    6  6  6  NUMBER OF K POINTS IN THE IBZ    112
 SHRINKING FACTOR(GILAT NET)   12  NUMBER OF K POINTS(GILAT NET)    868
 *******************************************************************************
 *** K POINTS COORDINATES (OBLIQUE COORDINATES IN UNITS OF IS =  6)
   1-R(  0  0  0)   2-C(  1  0  0)   3-C(  2  0  0)   4-R(  3  0  0)
   5-C(  0  1  0)   6-C(  1  1  0)   7-C(  2  1  0)   8-C(  3  1  0)
   9-C(  4  1  0)  10-C(  5  1  0)  11-C(  0  2  0)  12-C(  1  2  0)
  13-C(  2  2  0)  14-C(  3  2  0)  15-C(  4  2  0)  16-C(  5  2  0)
  17-R(  0  3  0)  18-C(  1  3  0)  19-C(  2  3  0)  20-R(  3  3  0)
  21-C(  0  0  1)  22-C(  1  0  1)  23-C(  2  0  1)  24-C(  3  0  1)
  25-C(  4  0  1)  26-C(  5  0  1)  27-C(  0  1  1)  28-C(  1  1  1)
  29-C(  2  1  1)  30-C(  3  1  1)  31-C(  4  1  1)  32-C(  5  1  1)
  33-C(  0  2  1)  34-C(  1  2  1)  35-C(  2  2  1)  36-C(  3  2  1)
  37-C(  4  2  1)  38-C(  5  2  1)  39-C(  0  3  1)  40-C(  1  3  1)
  41-C(  2  3  1)  42-C(  3  3  1)  43-C(  4  3  1)  44-C(  5  3  1)
  45-C(  0  4  1)  46-C(  1  4  1)  47-C(  2  4  1)  48-C(  3  4  1)
  49-C(  4  4  1)  50-C(  5  4  1)  51-C(  0  5  1)  52-C(  1  5  1)
  53-C(  2  5  1)  54-C(  3  5  1)  55-C(  4  5  1)  56-C(  5  5  1)
  57-C(  0  0  2)  58-C(  1  0  2)  59-C(  2  0  2)  60-C(  3  0  2)
  61-C(  4  0  2)  62-C(  5  0  2)  63-C(  0  1  2)  64-C(  1  1  2)
  65-C(  2  1  2)  66-C(  3  1  2)  67-C(  4  1  2)  68-C(  5  1  2)
  69-C(  0  2  2)  70-C(  1  2  2)  71-C(  2  2  2)  72-C(  3  2  2)
  73-C(  4  2  2)  74-C(  5  2  2)  75-C(  0  3  2)  76-C(  1  3  2)
  77-C(  2  3  2)  78-C(  3  3  2)  79-C(  4  3  2)  80-C(  5  3  2)
  81-C(  0  4  2)  82-C(  1  4  2)  83-C(  2  4  2)  84-C(  3  4  2)
  85-C(  4  4  2)  86-C(  5  4  2)  87-C(  0  5  2)  88-C(  1  5  2)
  89-C(  2  5  2)  90-C(  3  5  2)  91-C(  4  5  2)  92-C(  5  5  2)
  93-R(  0  0  3)  94-C(  1  0  3)  95-C(  2  0  3)  96-R(  3  0  3)
  97-C(  0  1  3)  98-C(  1  1  3)  99-C(  2  1  3) 100-C(  3  1  3)
 101-C(  4  1  3) 102-C(  5  1  3) 103-C(  0  2  3) 104-C(  1  2  3)
 105-C(  2  2  3) 106-C(  3  2  3) 107-C(  4  2  3) 108-C(  5  2  3)
 109-R(  0  3  3) 110-C(  1  3  3) 111-C(  2  3  3) 112-R(  3  3  3)

 DIRECT LATTICE VECTORS COMPON. (A.U.)     RECIP. LATTICE VECTORS COMPON. (A.U.) 
        X            Y            Z              X            Y            Z
   12.4372463    7.1805607    0.0000000      0.5051910    0.0000000   -0.1786290
    0.0000000   14.3610115    0.0000000     -0.2525974    0.4375169   -0.1786045
    4.1461220    7.1805125   11.7258874      0.0000000    0.0000000    0.5358388

 DISK SPACE FOR EIGENVECTORS (FTN 10)   123451776 REALS

 SYMMETRY ADAPTION OF THE BLOCH FUNCTIONS DISABLED
 TTTTTTTTTTTTTTTTTTTTTTTTTTTTTT gordsh1     TELAPSE        1.23 TCPU        0.41

 MATRIX SIZE: P(G) 7525620, F(G)  623358, P(G) IRR 3779052, F(G) IRR  624222
 MAX G-VECTOR INDEX FOR 1- AND 2-ELECTRON INTEGRALS 139

 TTTTTTTTTTTTTTTTTTTTTTTTTTTTTT INPUT       TELAPSE        1.76 TCPU        0.94

 NEIGHBORS OF THE NON-EQUIVALENT ATOMS

 N = NUMBER OF NEIGHBORS AT DISTANCE R
    ATOM  N     R/ANG      R/AU   NEIGHBORS (ATOM LABELS AND CELL INDICES)
   1 B    1     1.5519     2.9327   50 N   -1 0 1
   1 B    1     1.5519     2.9327   18 N    0 0 0
   1 B    1     1.5519     2.9328   42 N   -1 1 0
   1 B    1     1.5520     2.9328   54 N   -1 0 0
   1 B    1     2.5335     4.7877    7 B   -1 1 0
   1 B    1     2.5336     4.7878   23 B    0 0 0

   2 O    1     1.6418     3.1026   21 B    0-1 0
   2 O    1     1.6418     3.1026    9 B    0 0 0
   2 O    1     1.6418     3.1026   27 B    0 0 0
   2 O    1     1.6420     3.1030   25 B    1 0-1
   2 O    1     2.5294     4.7798   16 N    0-1 0
   2 O    1     2.5294     4.7798    4 N    0 0 0

   3 B    1     1.5495     2.9282   52 N    0 0 0
   3 B    1     1.5500     2.9291   50 N    0 0 0
   3 B    1     1.5530     2.9348   14 N    0 0 0
   3 B    1     1.5531     2.9349   38 N    0 0 0
   3 B    1     2.5302     4.7814   15 B    0 0 0
   3 B    1     2.5303     4.7815   39 B    0 0 0

   4 N    1     1.5200     2.8724   27 B    0 0 0
   4 N    1     1.5531     2.9349   11 B    0 0 0
   4 N    1     1.5531     2.9350   23 B    1-1 0
   4 N    1     1.5572     2.9427   29 B    1-1 0
   4 N    1     2.5284     4.7779   20 N    1 0-1
   4 N    1     2.5284     4.7780    8 N    0 0 0

   5 B    1     1.5496     2.9282   52 N    0 0 0
   5 B    1     1.5500     2.9291   54 N    0 0 0
   5 B    1     1.5531     2.9349   16 N    0 0 0
   5 B    1     1.5531     2.9350   40 N    0 1 0
   5 B    1     2.5302     4.7814   37 B    0 0 0
   5 B    1     2.5303     4.7815   13 B    0 0 0

   6 N    1     1.5200     2.8724   25 B    0 1 0
   6 N    1     1.5531     2.9349    7 B   -1 1 0
   6 N    1     1.5531     2.9350   19 B    0 0 0
   6 N    1     1.5572     2.9427   29 B    0 0 0
   6 N    1     2.5283     4.7778   12 N    0 1 0
   6 N    1     2.5283     4.7779   24 N    0 0 0

   7 B    1     1.5496     2.9283   48 N    0 0 0
   7 B    1     1.5500     2.9291   42 N    0 0 0
   7 B    1     1.5531     2.9348   38 N    0-1 1
   7 B    1     1.5531     2.9349    6 N    1-1 0
   7 B    1     2.5303     4.7815   11 B    0 0 0
   7 B    1     2.5303     4.7815   43 B    0 0 0

   8 N    1     1.5200     2.8725   27 B    0 0 0
   8 N    1     1.5531     2.9349   15 B    0 0 0
   8 N    1     1.5531     2.9349   31 B    1 0-1
   8 N    1     1.5572     2.9427   33 B    0 0 0
   8 N    1     2.5284     4.7779   20 N    1 0-1
   8 N    1     2.5284     4.7780    4 N    0 0 0

   9 B    1     1.5200     2.8724   44 N    0 0 0
   9 B    1     1.5200     2.8724   38 N    0-1 0
   9 B    1     1.5201     2.8725   40 N    0 0 0
   9 B    1     1.6418     3.1026    2 O    0 0 0
   9 B    1     2.4597     4.6482   51 B    0 0 0
   9 B    1     2.4597     4.6482   47 C    0-1 0

  10 N    1     1.5485     2.9263   33 B    0 0 0
  10 N    1     1.5486     2.9263   35 B    0 0 0
  10 N    1     1.5486     2.9264   29 B    1-1 0
  10 N    1     1.5529     2.9346   17 B    0 0 0
  10 N    1     2.5317     4.7843   48 N    0 0 0
  10 N    1     2.5318     4.7844   52 N    0 0 0

  11 B    1     1.5496     2.9282   46 N    0 0 0
  11 B    1     1.5500     2.9290   42 N    0 0 0
  11 B    1     1.5531     2.9349    4 N    0 0 0
  11 B    1     1.5531     2.9350   40 N    0 0 0
  11 B    1     2.5302     4.7814   43 B    0 0 0
  11 B    1     2.5303     4.7815    7 B    0 0 0

  12 N    1     1.5200     2.8724   25 B    0 0 0
  12 N    1     1.5531     2.9349   13 B   -1 0 0
  12 N    1     1.5531     2.9350   31 B    0 0 0
  12 N    1     1.5572     2.9426   35 B   -1 0 0
  12 N    1     2.5283     4.7778    6 N    0-1 0
  12 N    1     2.5283     4.7779   24 N    0-1 0

  13 B    1     1.5496     2.9282   48 N    0 0 0
  13 B    1     1.5500     2.9292   54 N    0 0 0
  13 B    1     1.5531     2.9349   44 N    0 0 1
  13 B    1     1.5531     2.9349   12 N    1 0 0
  13 B    1     2.5303     4.7815   37 B    0 0 0
  13 B    1     2.5303     4.7815    5 B    0 0 0

  14 N    1     1.5201     2.8725   21 B    0 0 0
  14 N    1     1.5530     2.9348    3 B    0 0 0
  14 N    1     1.5531     2.9349   19 B    1 0-1
  14 N    1     1.5573     2.9428   33 B    0 0 0
  14 N    1     2.5283     4.7779   32 N    1 0-1
  14 N    1     2.5284     4.7779   16 N    0 0 0

  15 B    1     1.5495     2.9281   46 N    0 0 0
  15 B    1     1.5500     2.9291   50 N    0 0 0
  15 B    1     1.5531     2.9349    8 N    0 0 0
  15 B    1     1.5531     2.9349   44 N    0 0 0
  15 B    1     2.5302     4.7814    3 B    0 0 0
  15 B    1     2.5302     4.7815   39 B    0 0 0

  16 N    1     1.5200     2.8724   21 B    0 0 0
  16 N    1     1.5531     2.9349    5 B    0 0 0
  16 N    1     1.5531     2.9350   23 B    1 0 0
  16 N    1     1.5572     2.9427   35 B    0 0 0
  16 N    1     2.5283     4.7778   32 N    1 0-1
  16 N    1     2.5284     4.7779   14 N    0 0 0

  17 B    1     1.5501     2.9293   48 N    0 0 0
  17 B    1     1.5502     2.9294   52 N    0 0 0
  17 B    1     1.5502     2.9294   46 N    0 0 0
  17 B    1     1.5529     2.9346   10 N    0 0 0
  17 B    1     2.5276     4.7764   49 B    0 0 0
  17 B    1     2.5276     4.7765   41 B    0 0 0

  18 N    1     1.5500     2.9290   23 B    0 0 0
  18 N    1     1.5500     2.9291   19 B    0 0 0
  18 N    1     1.5500     2.9291   31 B    0 0 0
  18 N    1     1.5519     2.9327    1 B    0 0 0
  18 N    1     2.5326     4.7860   34 N    0 0 0
  18 N    1     2.5327     4.7860   30 N    0 0 0

  19 B    1     1.5495     2.9282   36 N    0 0 0
  19 B    1     1.5500     2.9291   18 N    0 0 0
  19 B    1     1.5531     2.9349   14 N   -1 0 1
  19 B    1     1.5531     2.9350    6 N    0 0 0
  19 B    1     2.5302     4.7814   31 B    0 0 0
  19 B    1     2.5303     4.7815   23 B    0 0 0

  20 N    1     1.5201     2.8725   27 B   -1 0 1
  20 N    1     1.5531     2.9349   43 B    0 0 0
  20 N    1     1.5531     2.9350   39 B    0-1 1
  20 N    1     1.5572     2.9427   45 B    0-1 1
  20 N    1     2.5284     4.7779    4 N   -1 0 1
  20 N    1     2.5284     4.7779    8 N   -1 0 1

  21 B    1     1.5200     2.8724   16 N    0 0 0
  21 B    1     1.5200     2.8725   32 N    1 0-1
  21 B    1     1.5201     2.8725   14 N    0 0 0
  21 B    1     1.6418     3.1026    2 O    0 1 0
  21 B    1     2.4597     4.6481   33 B    0 0 0
  21 B    1     2.4597     4.6481   35 B    0 0 0

  22 N    1     1.5485     2.9263   45 B    0 0 0
  22 N    1     1.5485     2.9263   29 B    0 0 0
  22 N    1     1.5486     2.9264   47 C    0 0 0
  22 N    1     1.5530     2.9347   41 B    0 0 0
  22 N    1     2.5317     4.7843   34 N    0 0 0
  22 N    1     2.5318     4.7844   52 N    0 0 0

  23 B    1     1.5495     2.9282   34 N    0 0 0
  23 B    1     1.5500     2.9290   18 N    0 0 0
  23 B    1     1.5531     2.9350   16 N   -1 0 0
  23 B    1     1.5531     2.9350    4 N   -1 1 0
  23 B    1     2.5303     4.7815   31 B    0 0 0
  23 B    1     2.5303     4.7815   19 B    0 0 0

  24 N    1     1.5200     2.8723   25 B    0 1 0
  24 N    1     1.5531     2.9349   37 B    0 0 0
  24 N    1     1.5531     2.9350   43 B    0 1 0
  24 N    1     1.5572     2.9427   47 C    0 0 0
  24 N    1     2.5283     4.7779   12 N    0 1 0
  24 N    1     2.5283     4.7779    6 N    0 0 0

  25 B    1     1.5200     2.8723   24 N    0-1 0
  25 B    1     1.5200     2.8724   12 N    0 0 0
  25 B    1     1.5200     2.8724    6 N    0-1 0
  25 B    1     1.6420     3.1030    2 O   -1 0 1
  25 B    1     2.4595     4.6478   47 C    0-1 0
  25 B    1     2.4596     4.6480   35 B   -1 0 0

  26 N    1     1.5485     2.9263   33 B   -1 0 1
  26 N    1     1.5486     2.9264   51 B    0 0 1
  26 N    1     1.5486     2.9264   45 B    0-1 1
  26 N    1     1.5529     2.9346   49 B    0 0 0
  26 N    1     2.5317     4.7843   48 N    0 0 0
  26 N    1     2.5318     4.7844   36 N    0 0 0

  27 B    1     1.5200     2.8724    4 N    0 0 0
  27 B    1     1.5200     2.8725    8 N    0 0 0
  27 B    1     1.5201     2.8725   20 N    1 0-1
  27 B    1     1.6418     3.1026    2 O    0 0 0
  27 B    1     2.4596     4.6479   33 B    0 0 0
  27 B    1     2.4596     4.6480   29 B    1-1 0

  28 N    1     1.5485     2.9263   51 B    0 0 0
  28 N    1     1.5485     2.9263   35 B   -1 0 0
  28 N    1     1.5486     2.9264   47 C    0-1 0
  28 N    1     1.5530     2.9347   53 B    0 0 0
  28 N    1     2.5317     4.7843   34 N    0 0 0
  28 N    1     2.5318     4.7844   46 N    0 0 0

  29 B    1     1.5485     2.9263   22 N    0 0 0
  29 B    1     1.5486     2.9264   10 N   -1 1 0
  29 B    1     1.5572     2.9427    6 N    0 0 0
  29 B    1     1.5572     2.9427    4 N   -1 1 0
  29 B    1     2.4596     4.6480   27 B   -1 1 0
  29 B    1     2.4596     4.6480   25 B    0 1 0

  30 N    1     1.5495     2.9281   31 B    0 0 0
  30 N    1     1.5496     2.9282   43 B    0 0 0
  30 N    1     1.5501     2.9293   53 B    0 0 0
  30 N    1     1.5502     2.9294   49 B    0 0 0
  30 N    1     2.5318     4.7844   26 N    0 0 0
  30 N    1     2.5318     4.7844   28 N    0 0 0

  31 B    1     1.5495     2.9281   30 N    0 0 0
  31 B    1     1.5500     2.9291   18 N    0 0 0
  31 B    1     1.5531     2.9349    8 N   -1 0 1
  31 B    1     1.5531     2.9350   12 N    0 0 0
  31 B    1     2.5302     4.7814   19 B    0 0 0
  31 B    1     2.5303     4.7815   23 B    0 0 0

  32 N    1     1.5200     2.8725   21 B   -1 0 1
  32 N    1     1.5531     2.9349   37 B    0 0 0
  32 N    1     1.5531     2.9349   39 B    0 0 1
  32 N    1     1.5572     2.9427   51 B    0 0 1
  32 N    1     2.5283     4.7778   16 N   -1 0 1
  32 N    1     2.5283     4.7779   14 N   -1 0 1

  33 B    1     1.5485     2.9263   10 N    0 0 0
  33 B    1     1.5485     2.9263   26 N    1 0-1
  33 B    1     1.5572     2.9427    8 N    0 0 0
  33 B    1     1.5573     2.9428   14 N    0 0 0
  33 B    1     2.4596     4.6479   27 B    0 0 0
  33 B    1     2.4597     4.6481   21 B    0 0 0

  34 N    1     1.5495     2.9282   23 B    0 0 0
  34 N    1     1.5495     2.9282   39 B    0 0 0
  34 N    1     1.5502     2.9294   53 B    0 0 0
  34 N    1     1.5502     2.9294   41 B    0 0 0
  34 N    1     2.5317     4.7843   28 N    0 0 0
  34 N    1     2.5317     4.7843   22 N    0 0 0

  35 B    1     1.5485     2.9263   28 N    1 0 0
  35 B    1     1.5486     2.9263   10 N    0 0 0
  35 B    1     1.5572     2.9426   12 N    1 0 0
  35 B    1     1.5572     2.9427   16 N    0 0 0
  35 B    1     2.4596     4.6480   25 B    1 0 0
  35 B    1     2.4597     4.6481   21 B    0 0 0

  36 N    1     1.5495     2.9282   19 B    0 0 0
  36 N    1     1.5496     2.9282   37 B    0 0 0
  36 N    1     1.5501     2.9293   41 B    0 0 0
  36 N    1     1.5502     2.9294   49 B    0 0 0
  36 N    1     2.5318     4.7844   26 N    0 0 0
  36 N    1     2.5318     4.7844   22 N    0 0 0

  37 B    1     1.5496     2.9282   36 N    0 0 0
  37 B    1     1.5500     2.9291   54 N    0 0 0
  37 B    1     1.5531     2.9349   32 N    0 0 0
  37 B    1     1.5531     2.9349   24 N    0 0 0
  37 B    1     2.5302     4.7814    5 B    0 0 0
  37 B    1     2.5303     4.7815   13 B    0 0 0

  38 N    1     1.5200     2.8724    9 B    0 1 0
  38 N    1     1.5531     2.9348    7 B    0 1-1
  38 N    1     1.5531     2.9349    3 B    0 0 0
  38 N    1     1.5572     2.9428   45 B    0 0 0
  38 N    1     2.5283     4.7778   44 N    0 1 0
  38 N    1     2.5283     4.7779   40 N    0 1 0

  39 B    1     1.5495     2.9282   34 N    0 0 0
  39 B    1     1.5500     2.9291   50 N    0 0 0
  39 B    1     1.5531     2.9349   32 N    0 0-1
  39 B    1     1.5531     2.9350   20 N    0 1-1
  39 B    1     2.5302     4.7815   15 B    0 0 0
  39 B    1     2.5303     4.7815    3 B    0 0 0

  40 N    1     1.5201     2.8725    9 B    0 0 0
  40 N    1     1.5531     2.9350   11 B    0 0 0
  40 N    1     1.5531     2.9350    5 B    0-1 0
  40 N    1     1.5571     2.9426   47 C    0-1 0
  40 N    1     2.5283     4.7779   38 N    0-1 0
  40 N    1     2.5283     4.7779   44 N    0 0 0

  41 B    1     1.5501     2.9293   52 N    0 0 0
  41 B    1     1.5501     2.9293   36 N    0 0 0
  41 B    1     1.5502     2.9294   34 N    0 0 0
  41 B    1     1.5530     2.9347   22 N    0 0 0
  41 B    1     2.5276     4.7764   53 B    0 0 0
  41 B    1     2.5276     4.7765   17 B    0 0 0

  42 N    1     1.5500     2.9290   11 B    0 0 0
  42 N    1     1.5500     2.9290   43 B    0 0 0
  42 N    1     1.5500     2.9291    7 B    0 0 0
  42 N    1     1.5519     2.9328    1 B    1-1 0
  42 N    1     2.5326     4.7860   48 N    0 0 0
  42 N    1     2.5327     4.7860   30 N    0 0 0

  43 B    1     1.5496     2.9282   30 N    0 0 0
  43 B    1     1.5500     2.9290   42 N    0 0 0
  43 B    1     1.5531     2.9349   20 N    0 0 0
  43 B    1     1.5531     2.9350   24 N    0-1 0
  43 B    1     2.5302     4.7814   11 B    0 0 0
  43 B    1     2.5303     4.7815    7 B    0 0 0

  44 N    1     1.5200     2.8724    9 B    0 0 0
  44 N    1     1.5531     2.9349   13 B    0 0-1
  44 N    1     1.5531     2.9349   15 B    0 0 0
  44 N    1     1.5572     2.9427   51 B    0 0 0
  44 N    1     2.5283     4.7778   38 N    0-1 0
  44 N    1     2.5283     4.7779   40 N    0 0 0

  45 B    1     1.5485     2.9263   22 N    0 0 0
  45 B    1     1.5486     2.9264   26 N    0 1-1
  45 B    1     1.5572     2.9427   20 N    0 1-1
  45 B    1     1.5572     2.9428   38 N    0 0 0
  45 B    1     2.4597     4.6481   27 B   -1 1 0
  45 B    1     2.4597     4.6482    9 B    0 1 0

  46 N    1     1.5495     2.9281   15 B    0 0 0
  46 N    1     1.5496     2.9282   11 B    0 0 0
  46 N    1     1.5501     2.9293   53 B    0 0 0
  46 N    1     1.5502     2.9294   17 B    0 0 0
  46 N    1     2.5318     4.7844   28 N    0 0 0
  46 N    1     2.5318     4.7844   10 N    0 0 0

  47 C    1     1.5486     2.9264   22 N    0 0 0
  47 C    1     1.5486     2.9264   28 N    0 1 0
  47 C    1     1.5571     2.9426   40 N    0 1 0
  47 C    1     1.5572     2.9427   24 N    0 0 0
  47 C    1     2.4595     4.6478   25 B    0 1 0
  47 C    1     2.4597     4.6482    9 B    0 1 0

  48 N    1     1.5496     2.9282   13 B    0 0 0
  48 N    1     1.5496     2.9283    7 B    0 0 0
  48 N    1     1.5501     2.9293   17 B    0 0 0
  48 N    1     1.5501     2.9293   49 B    0 0 0
  48 N    1     2.5317     4.7843   10 N    0 0 0
  48 N    1     2.5317     4.7843   26 N    0 0 0

  49 B    1     1.5501     2.9293   48 N    0 0 0
  49 B    1     1.5502     2.9294   36 N    0 0 0
  49 B    1     1.5502     2.9294   30 N    0 0 0
  49 B    1     1.5529     2.9346   26 N    0 0 0
  49 B    1     2.5276     4.7764   17 B    0 0 0
  49 B    1     2.5276     4.7765   53 B    0 0 0

  50 N    1     1.5500     2.9291   39 B    0 0 0
  50 N    1     1.5500     2.9291   15 B    0 0 0
  50 N    1     1.5500     2.9291    3 B    0 0 0
  50 N    1     1.5519     2.9327    1 B    1 0-1
  50 N    1     2.5326     4.7860   34 N    0 0 0
  50 N    1     2.5327     4.7860   52 N    0 0 0

  51 B    1     1.5485     2.9263   28 N    0 0 0
  51 B    1     1.5486     2.9264   26 N    0 0-1
  51 B    1     1.5572     2.9427   32 N    0 0-1
  51 B    1     1.5572     2.9427   44 N    0 0 0
  51 B    1     2.4597     4.6482    9 B    0 0 0
  51 B    1     2.4597     4.6482   21 B   -1 0 0

  52 N    1     1.5495     2.9282    3 B    0 0 0
  52 N    1     1.5496     2.9282    5 B    0 0 0
  52 N    1     1.5501     2.9293   41 B    0 0 0
  52 N    1     1.5502     2.9294   17 B    0 0 0
  52 N    1     2.5318     4.7844   22 N    0 0 0
  52 N    1     2.5318     4.7844   10 N    0 0 0

  53 B    1     1.5501     2.9293   30 N    0 0 0
  53 B    1     1.5501     2.9293   46 N    0 0 0
  53 B    1     1.5502     2.9294   34 N    0 0 0
  53 B    1     1.5530     2.9347   28 N    0 0 0
  53 B    1     2.5276     4.7764   41 B    0 0 0
  53 B    1     2.5276     4.7765   17 B    0 0 0

  54 N    1     1.5500     2.9291    5 B    0 0 0
  54 N    1     1.5500     2.9291   37 B    0 0 0
  54 N    1     1.5500     2.9292   13 B    0 0 0
  54 N    1     1.5520     2.9328    1 B    1 0 0
  54 N    1     2.5326     4.7860   48 N    0 0 0
  54 N    1     2.5327     4.7861   36 N    0 0 0


 SYMMETRY ALLOWED INTERNAL DEGREE(S) OF FREEDOM: 159
 TTTTTTTTTTTTTTTTTTTTTTTTTTTTTT SYMM        TELAPSE        1.78 TCPU        0.96
 TTTTTTTTTTTTTTTTTTTTTTTTTTTTTT INT_SCREEN  TELAPSE        1.82 TCPU        1.00

 DFT PARAMETERS

     ATOM       ELECTRONS   NET CHARGE   R(ANGSTROM)
   1   5  B       5.0000      0.0000     0.89000000
   2   8  O       8.0000      0.0000     0.74000000
   4   7  N       7.0000      0.0000     0.74000000
  47   6  C       6.0000      0.0000     0.77000000

 SIZE OF GRID=    1302041
 TTTTTTTTTTTTTTTTTTTTTTTTTTTTTT MAKE_GRID2  TELAPSE        7.45 TCPU        6.63
 BECKE WEIGHT FUNCTION
 RADSAFE =     2.00
 TOLERANCES - DENSITY:10**- 6; POTENTIAL:10**- 9; GRID WGT:10**-14

 RADIAL INTEGRATION  - INTERVALS (POINTS,UPPER LIMIT):            1( 75,  4.0*R)

 ANGULAR INTEGRATION - INTERVALS (ACCURACY LEVEL [N. POINTS] UPPER LIMIT):
  1(  4[  86]   0.2)  2(  8[ 194]   0.5)  3( 12[ 350]   0.9)  4( 16[ 974]   3.5)
  5( 12[ 350]9999.0)
 TTTTTTTTTTTTTTTTTTTTTTTTTTTTTT INT_CALC    TELAPSE        7.53 TCPU        6.71
 EEEEEEEEEE INT_CALC TERMINATION  DATE 22 03 2023 TIME 14:14:42.7

 *******************************************************************************
 substitutionscBN_O_N_141                                                        
 CRYSTAL - SCF - TYPE OF CALCULATION :  UNRESTRICTED OPEN SHELL
 *******************************************************************************

 CAPPA:IS1  6;IS2  6;IS3  6; K PTS MONK NET 112; SYMMOPS:K SPACE   2;G SPACE   1

 TTTTTTTTTTTTTTTTTTTTTTTTTTTTTT SDIK        TELAPSE       14.12 TCPU       13.27

 AAAAAAAAAAAAAAAAAAAAAAAAAAAAAAAAAAAAAAAAAAAAAAAAAAAAAAAAAAAAAAAAAAAAAAAAAAAAAAA
         ATOMIC WAVEFUNCTION(S)


 NUCLEAR CHARGE  5.0  SYMMETRY SPECIES            S    P
 N. ELECTRONS    5.0  NUMBER OF PRIMITIVE GTOS    7    4
                      NUMBER OF CONTRACTED GTOS   3    2
                      NUMBER OF CLOSED SHELLS     2    0
                      OPEN SHELL OCCUPATION       0    1

  ZNUC SCFIT  TOTAL HF ENERGY   KINETIC ENERGY   VIRIAL THEOREM ACCURACY
   5.0   7   -2.443453004E+01  2.471954539E+01 -1.988470041E+00  3.9E-06

 NUCLEAR CHARGE  8.0  SYMMETRY SPECIES            S    P
 N. ELECTRONS    8.0  NUMBER OF PRIMITIVE GTOS    7    4
                      NUMBER OF CONTRACTED GTOS   3    2
                      NUMBER OF CLOSED SHELLS     2    0
                      OPEN SHELL OCCUPATION       0    4

  ZNUC SCFIT  TOTAL HF ENERGY   KINETIC ENERGY   VIRIAL THEOREM ACCURACY
   8.0  13   -7.471200414E+01  7.474432650E+01 -1.999567561E+00  2.0E-06

 NUCLEAR CHARGE  7.0  SYMMETRY SPECIES            S    P
 N. ELECTRONS    7.0  NUMBER OF PRIMITIVE GTOS    7    4
                      NUMBER OF CONTRACTED GTOS   3    2
                      NUMBER OF CLOSED SHELLS     2    0
                      OPEN SHELL OCCUPATION       0    3

  ZNUC SCFIT  TOTAL HF ENERGY   KINETIC ENERGY   VIRIAL THEOREM ACCURACY
   7.0   9   -5.433012196E+01  5.433288047E+01 -1.999949230E+00  2.1E-06

 NUCLEAR CHARGE  6.0  SYMMETRY SPECIES            S    P
 N. ELECTRONS    6.0  NUMBER OF PRIMITIVE GTOS    7    4
                      NUMBER OF CONTRACTED GTOS   3    2
                      NUMBER OF CLOSED SHELLS     2    0
                      OPEN SHELL OCCUPATION       0    2

  ZNUC SCFIT  TOTAL HF ENERGY   KINETIC ENERGY   VIRIAL THEOREM ACCURACY
   6.0   9   -3.761483716E+01  3.761967630E+01 -1.999871367E+00  1.6E-06

 AAAAAAAAAAAAAAAAAAAAAAAAAAAAAAAAAAAAAAAAAAAAAAAAAAAAAAAAAAAAAAAAAAAAAAAAAAAAAAA

 CHARGE NORMALIZATION FACTOR   1.00000000
 TOTAL ATOMIC CHARGES:
   5.0000000   8.0000000   5.0000000   7.0000000   5.0000000   7.0000000
   5.0000000   7.0000000   5.0000000   7.0000000   5.0000000   7.0000000
   5.0000000   7.0000000   5.0000000   7.0000000   5.0000000   7.0000000
   5.0000000   7.0000000   5.0000000   7.0000000   5.0000000   7.0000000
   5.0000000   7.0000000   5.0000000   7.0000000   5.0000000   7.0000000
   5.0000000   7.0000000   5.0000000   7.0000000   5.0000000   7.0000000
   5.0000000   7.0000000   5.0000000   7.0000000   5.0000000   7.0000000
   5.0000000   7.0000000   5.0000000   7.0000000   6.0000000   7.0000000
   5.0000000   7.0000000   5.0000000   7.0000000   5.0000000   7.0000000
 SUMMED SPIN DENSITY           0.00000000
 TOTAL ATOMIC SPINS  :
   0.0000000   0.0000000   0.0000000   0.0000000   0.0000000   0.0000000
   0.0000000   0.0000000   0.0000000   0.0000000   0.0000000   0.0000000
   0.0000000   0.0000000   0.0000000   0.0000000   0.0000000   0.0000000
   0.0000000   0.0000000   0.0000000   0.0000000   0.0000000   0.0000000
   0.0000000   0.0000000   0.0000000   0.0000000   0.0000000   0.0000000
   0.0000000   0.0000000   0.0000000   0.0000000   0.0000000   0.0000000
   0.0000000   0.0000000   0.0000000   0.0000000   0.0000000   0.0000000
   0.0000000   0.0000000   0.0000000   0.0000000   0.0000000   0.0000000
   0.0000000   0.0000000   0.0000000   0.0000000   0.0000000   0.0000000
 TTTTTTTTTTTTTTTTTTTTTTTTTTTTTT MOQGAD      TELAPSE       15.77 TCPU       14.90
 TTTTTTTTTTTTTTTTTTTTTTTTTTTTTT SHELLXN     TELAPSE     3009.48 TCPU     3000.98
 TTTTTTTTTTTTTTTTTTTTTTTTTTTTTT MONMO3      TELAPSE     3097.46 TCPU     3088.80
 NUMERICALLY INTEGRATED DENSITY    163.0003302706    163.0003302706
 TTTTTTTTTTTTTTTTTTTTTTTTTTTTTT NUMDFT      TELAPSE     3112.59 TCPU     3103.90
 CYC   0 ETOT(AU) -2.195122304952E+03 DETOT -2.20E+03 tst  0.00E+00 PX  1.00E+00
 TTTTTTTTTTTTTTTTTTTTTTTTTTTTTT DIIS        TELAPSE     3113.66 TCPU     3104.65
 TTTTTTTTTTTTTTTTTTTTTTTTTTTTTT FDIK        TELAPSE     3330.85 TCPU     3320.69

    ALPHA      ELECTRONS
 INSULATING STATE
 TOP OF VALENCE BANDS -    BAND    163; K   93; EIG  2.2644758E-02 AU
 TOP OF VALENCE BANDS -    BAND    163; K    1; EIG  1.3254731E-03 AU
 BOTTOM OF VIRTUAL BANDS - BAND    164; K  102; EIG  2.4980861E-02 AU
 INDIRECT ENERGY BAND GAP:   0.0636 eV
 BOTTOM OF VIRTUAL BANDS - BAND    164; K    1; EIG  3.0888346E-02 AU

    BETA       ELECTRONS
 INSULATING STATE
 TOP OF VALENCE BANDS -    BAND    163; K   93; EIG  2.2644758E-02 AU
 TOP OF VALENCE BANDS -    BAND    163; K    1; EIG  1.3254731E-03 AU
 BOTTOM OF VIRTUAL BANDS - BAND    164; K  102; EIG  2.4980861E-02 AU
 INDIRECT ENERGY BAND GAP:   0.0636 eV
 BOTTOM OF VIRTUAL BANDS - BAND    164; K    1; EIG  3.0888346E-02 AU
 TTTTTTTTTTTTTTTTTTTTTTTTTTTTTT PDIG        TELAPSE     3335.51 TCPU     3325.19
 CHARGE NORMALIZATION FACTOR   1.00000000
 TOTAL ATOMIC CHARGES:
   4.5982619   8.6770028   4.5997811   7.4384210   4.6022350   7.4376176
   4.5996219   7.4406793   4.5020659   7.4477607   4.6022455   7.4375814
   4.5996174   7.4406910   4.5997853   7.4384052   4.5858245   7.4505993
   4.5997770   7.4384147   4.4755880   7.3231740   4.5964376   7.3235289
   4.5021421   7.4477601   4.4755771   7.3232247   4.5890447   7.4512895
   4.5997803   7.4384005   4.5810441   7.4514236   4.5890365   7.4512976
   4.6022583   7.4376211   4.5964529   7.3236176   4.5918299   7.4477954
   4.6022644   7.4375990   4.5890244   7.4512783   5.1941983   7.4545162
   4.5858131   7.4506157   4.5890087   7.4512763   4.5918246   7.4478681
 SUMMED SPIN DENSITY          -0.00000000
 TOTAL ATOMIC SPINS  :
  -0.0000000  -0.0000000   0.0000000   0.0000000   0.0000000  -0.0000000
   0.0000000   0.0000000   0.0000000  -0.0000000  -0.0000000   0.0000000
  -0.0000000   0.0000000  -0.0000000  -0.0000000   0.0000000  -0.0000000
   0.0000000  -0.0000000  -0.0000000  -0.0000000  -0.0000000  -0.0000000
   0.0000000  -0.0000000  -0.0000000   0.0000000  -0.0000000   0.0000000
  -0.0000000  -0.0000000  -0.0000000   0.0000000   0.0000000  -0.0000000
   0.0000000  -0.0000000   0.0000000  -0.0000000   0.0000000  -0.0000000
   0.0000000   0.0000000  -0.0000000   0.0000000   0.0000000  -0.0000000
   0.0000000   0.0000000  -0.0000000  -0.0000000  -0.0000000   0.0000000
 TTTTTTTTTTTTTTTTTTTTTTTTTTTTTT MOQGAD      TELAPSE     3335.58 TCPU     3325.26
 TTTTTTTTTTTTTTTTTTTTTTTTTTTTTT SHELLXN     TELAPSE     6434.23 TCPU     6414.81
 TTTTTTTTTTTTTTTTTTTTTTTTTTTTTT MONMO3      TELAPSE     6530.26 TCPU     6510.44
 NUMERICALLY INTEGRATED DENSITY    163.0001896503    163.0001896503
 TTTTTTTTTTTTTTTTTTTTTTTTTTTTTT NUMDFT      TELAPSE     6588.91 TCPU     6568.97
 CYC   1 ETOT(AU) -2.181478580052E+03 DETOT  1.36E+01 tst  0.00E+00 PX  1.00E+00
 TTTTTTTTTTTTTTTTTTTTTTTTTTTTTT DIIS        TELAPSE     6590.02 TCPU     6569.50
 DIIS TEST: 0.43193E+01 AT SCF   CYCLE   1 - MIX   30 %
 TTTTTTTTTTTTTTTTTTTTTTTTTTTTTT FDIK        TELAPSE     6653.63 TCPU     6632.65
 POSSIBLY CONDUCTING STATE - EFERMI(AU)  7.8847228E-02 (RES. CHARGE  1.40E-11;IT.  8)
 TTTTTTTTTTTTTTTTTTTTTTTTTTTTTT PDIG        TELAPSE     6658.29 TCPU     6637.03
 CHARGE NORMALIZATION FACTOR   1.00000000
 TOTAL ATOMIC CHARGES:
   4.8185199   8.5669641   4.8322227   7.1251020   4.8569266   7.1248546
   4.7972401   7.1154882   4.8516057   7.1354619   4.8570807   7.1247981
   4.7973823   7.1154914   4.8322389   7.1251572   4.7828114   7.1166318
   4.8321949   7.1251498   4.7652670   7.1967603   4.8441644   7.2356782
   4.8516802   7.1353410   4.7653160   7.1967406   4.8420142   7.1421115
   4.8321613   7.1249772   4.8108609   7.1376240   4.8418798   7.1418619
   4.8569031   7.1246433   4.8441271   7.2355421   4.8457563   7.1289429
   4.8568531   7.1246499   4.8420394   7.1417946   6.1980564   7.1445992
   4.7828427   7.1168749   4.8419825   7.1419726   4.8457046   7.1289546
 SUMMED SPIN DENSITY           0.00000000
 TOTAL ATOMIC SPINS  :
  -0.0000000   0.0000000   0.0000000   0.0000000   0.0000000  -0.0000000
   0.0000000  -0.0000000   0.0000000  -0.0000000  -0.0000000   0.0000000
  -0.0000000   0.0000000  -0.0000000  -0.0000000  -0.0000000  -0.0000000
   0.0000000  -0.0000000  -0.0000000  -0.0000000  -0.0000000   0.0000000
   0.0000000  -0.0000000  -0.0000000   0.0000000  -0.0000000  -0.0000000
  -0.0000000  -0.0000000  -0.0000000   0.0000000   0.0000000  -0.0000000
   0.0000000  -0.0000000   0.0000000  -0.0000000   0.0000000   0.0000000
   0.0000000   0.0000000  -0.0000000   0.0000000  -0.0000000  -0.0000000
   0.0000000   0.0000000   0.0000000  -0.0000000  -0.0000000  -0.0000000
 TTTTTTTTTTTTTTTTTTTTTTTTTTTTTT MOQGAD      TELAPSE     6658.36 TCPU     6637.10
 TTTTTTTTTTTTTTTTTTTTTTTTTTTTTT SHELLXN     TELAPSE     9760.70 TCPU     9730.19
 TTTTTTTTTTTTTTTTTTTTTTTTTTTTTT MONMO3      TELAPSE     9854.01 TCPU     9823.36
 NUMERICALLY INTEGRATED DENSITY    163.0002045289    163.0002045289
 TTTTTTTTTTTTTTTTTTTTTTTTTTTTTT NUMDFT      TELAPSE     9912.44 TCPU     9881.68
 CYC   2 ETOT(AU) -2.181711808780E+03 DETOT -2.33E-01 tst  8.09E-03 PX  2.16E-01
 TTTTTTTTTTTTTTTTTTTTTTTTTTTTTT DIIS        TELAPSE     9913.18 TCPU     9882.16
 DIIS TEST: 0.31581E+01 AT SCF   CYCLE   2 - DIIS ACTIVE - HISTORY:     2 CYCLES
 TTTTTTTTTTTTTTTTTTTTTTTTTTTTTT FDIK        TELAPSE     9971.76 TCPU     9940.55

    ALPHA      ELECTRONS
 INSULATING STATE
 TOP OF VALENCE BANDS -    BAND    163; K   93; EIG  1.2412403E-01 AU
 TOP OF VALENCE BANDS -    BAND    163; K    1; EIG  9.9986178E-02 AU
 BOTTOM OF VIRTUAL BANDS - BAND    164; K  102; EIG  1.3499174E-01 AU
 INDIRECT ENERGY BAND GAP:   0.2957 eV
 BOTTOM OF VIRTUAL BANDS - BAND    164; K    1; EIG  1.4094671E-01 AU

    BETA       ELECTRONS
 INSULATING STATE
 TOP OF VALENCE BANDS -    BAND    163; K   93; EIG  1.2412403E-01 AU
 TOP OF VALENCE BANDS -    BAND    163; K    1; EIG  9.9986178E-02 AU
 BOTTOM OF VIRTUAL BANDS - BAND    164; K  102; EIG  1.3499174E-01 AU
 INDIRECT ENERGY BAND GAP:   0.2957 eV
 BOTTOM OF VIRTUAL BANDS - BAND    164; K    1; EIG  1.4094671E-01 AU
 TTTTTTTTTTTTTTTTTTTTTTTTTTTTTT PDIG        TELAPSE     9976.46 TCPU     9945.10
 CHARGE NORMALIZATION FACTOR   1.00000000
 TOTAL ATOMIC CHARGES:
   4.7705648   8.6443024   4.7760797   7.2815157   4.7522722   7.2371693
   4.8085179   7.2663232   4.6678199   7.2518892   4.7522106   7.2371591
   4.8083989   7.2665025   4.7762645   7.2815368   4.7975598   7.2866438
   4.7762175   7.2815880   4.7211522   7.1863114   4.7586200   7.1107184
   4.6677693   7.2519836   4.7212868   7.1865629   4.7569898   7.2582144
   4.7762021   7.2814805   4.7850891   7.3011001   4.7571243   7.2581128
   4.7520945   7.2371189   4.7585719   7.1108193   4.7423101   7.2625370
   4.7521110   7.2370719   4.7569826   7.2580699   5.2693360   7.2591891
   4.7974241   7.2866580   4.7571786   7.2581943   4.7423317   7.2627473
 SUMMED SPIN DENSITY          -0.00000000
 TOTAL ATOMIC SPINS  :
  -0.0000000   0.0000000   0.0000000   0.0000000   0.0000000  -0.0000000
  -0.0000000   0.0000000   0.0000000  -0.0000000  -0.0000000   0.0000000
  -0.0000000   0.0000000  -0.0000000  -0.0000000  -0.0000000   0.0000000
   0.0000000  -0.0000000   0.0000000  -0.0000000  -0.0000000   0.0000000
   0.0000000  -0.0000000  -0.0000000   0.0000000  -0.0000000  -0.0000000
  -0.0000000  -0.0000000   0.0000000   0.0000000   0.0000000   0.0000000
   0.0000000  -0.0000000   0.0000000   0.0000000   0.0000000   0.0000000
   0.0000000   0.0000000  -0.0000000   0.0000000  -0.0000000  -0.0000000
   0.0000000   0.0000000   0.0000000  -0.0000000  -0.0000000  -0.0000000
 TTTTTTTTTTTTTTTTTTTTTTTTTTTTTT MOQGAD      TELAPSE     9976.53 TCPU     9945.16
 TTTTTTTTTTTTTTTTTTTTTTTTTTTTTT SHELLXN     TELAPSE    13083.39 TCPU    13042.09
 TTTTTTTTTTTTTTTTTTTTTTTTTTTTTT MONMO3      TELAPSE    13179.65 TCPU    13138.19
 NUMERICALLY INTEGRATED DENSITY    163.0002016493    163.0002016493
 TTTTTTTTTTTTTTTTTTTTTTTTTTTTTT NUMDFT      TELAPSE    13238.15 TCPU    13196.58
 CYC   3 ETOT(AU) -2.181888557594E+03 DETOT -1.77E-01 tst  1.34E-01 PX  1.94E-01
 TTTTTTTTTTTTTTTTTTTTTTTTTTTTTT DIIS        TELAPSE    13239.36 TCPU    13197.78
 DIIS TEST: 0.13934E+01 AT SCF   CYCLE   3 - DIIS ACTIVE - HISTORY:     3 CYCLES
 TTTTTTTTTTTTTTTTTTTTTTTTTTTTTT FDIK        TELAPSE    13300.89 TCPU    13258.67

    ALPHA      ELECTRONS
 INSULATING STATE
 TOP OF VALENCE BANDS -    BAND    163; K   93; EIG  1.1894364E-01 AU
 TOP OF VALENCE BANDS -    BAND    163; K    1; EIG  9.1093929E-02 AU
 BOTTOM OF VIRTUAL BANDS - BAND    164; K   27; EIG  1.2344010E-01 AU
 INDIRECT ENERGY BAND GAP:   0.1224 eV
 BOTTOM OF VIRTUAL BANDS - BAND    164; K    1; EIG  1.2809117E-01 AU

    BETA       ELECTRONS
 INSULATING STATE
 TOP OF VALENCE BANDS -    BAND    163; K   93; EIG  1.1894364E-01 AU
 TOP OF VALENCE BANDS -    BAND    163; K    1; EIG  9.1093929E-02 AU
 BOTTOM OF VIRTUAL BANDS - BAND    164; K   27; EIG  1.2344010E-01 AU
 INDIRECT ENERGY BAND GAP:   0.1224 eV
 BOTTOM OF VIRTUAL BANDS - BAND    164; K    1; EIG  1.2809117E-01 AU
 TTTTTTTTTTTTTTTTTTTTTTTTTTTTTT PDIG        TELAPSE    13305.53 TCPU    13263.10
 CHARGE NORMALIZATION FACTOR   1.00000000
 TOTAL ATOMIC CHARGES:
   4.7099577   8.6462074   4.7158526   7.2824351   4.7287838   7.2819739
   4.7139984   7.2764701   4.6770316   7.2921414   4.7288674   7.2819467
   4.7139864   7.2764476   4.7158774   7.2825419   4.6990975   7.2938996
   4.7159034   7.2824649   4.6342592   7.2557158   4.7164253   7.2505333
   4.6772489   7.2921287   4.6343506   7.2558712   4.7201236   7.3013565
   4.7158569   7.2824380   4.6992698   7.3013268   4.7200926   7.3012668
   4.7289176   7.2820183   4.7164540   7.2507138   4.7187449   7.2982158
   4.7288701   7.2819739   4.7201043   7.3013150   5.5652782   7.3019297
   4.6990752   7.2938617   4.7201386   7.3013711   4.7186773   7.2981914
 SUMMED SPIN DENSITY          -0.00000000
 TOTAL ATOMIC SPINS  :
  -0.0000000  -0.0000000   0.0000000   0.0000000   0.0000000  -0.0000000
  -0.0000000   0.0000000  -0.0000000  -0.0000000  -0.0000000   0.0000000
   0.0000000  -0.0000000  -0.0000000  -0.0000000  -0.0000000  -0.0000000
   0.0000000  -0.0000000   0.0000000  -0.0000000  -0.0000000   0.0000000
   0.0000000  -0.0000000  -0.0000000   0.0000000  -0.0000000  -0.0000000
  -0.0000000  -0.0000000   0.0000000   0.0000000   0.0000000  -0.0000000
   0.0000000  -0.0000000   0.0000000   0.0000000   0.0000000   0.0000000
   0.0000000   0.0000000   0.0000000   0.0000000  -0.0000000  -0.0000000
   0.0000000   0.0000000   0.0000000  -0.0000000  -0.0000000  -0.0000000
 TTTTTTTTTTTTTTTTTTTTTTTTTTTTTT MOQGAD      TELAPSE    13305.60 TCPU    13263.17
 TTTTTTTTTTTTTTTTTTTTTTTTTTTTTT SHELLXN     TELAPSE    16407.98 TCPU    16355.03
 TTTTTTTTTTTTTTTTTTTTTTTTTTTTTT MONMO3      TELAPSE    16501.95 TCPU    16448.75
 NUMERICALLY INTEGRATED DENSITY    163.0001994892    163.0001994892
 TTTTTTTTTTTTTTTTTTTTTTTTTTTTTT NUMDFT      TELAPSE    16560.41 TCPU    16507.14
 CYC   4 ETOT(AU) -2.181986732797E+03 DETOT -9.82E-02 tst  1.35E-03 PX  5.54E-02
 TTTTTTTTTTTTTTTTTTTTTTTTTTTTTT DIIS        TELAPSE    16561.52 TCPU    16508.25
 DIIS TEST: 0.10377E-01 AT SCF   CYCLE   4 - DIIS ACTIVE - HISTORY:     4 CYCLES
 TTTTTTTTTTTTTTTTTTTTTTTTTTTTTT FDIK        TELAPSE    16616.32 TCPU    16562.71

    ALPHA      ELECTRONS
 INSULATING STATE
 TOP OF VALENCE BANDS -    BAND    163; K   93; EIG  1.1541195E-01 AU
 TOP OF VALENCE BANDS -    BAND    163; K    1; EIG  8.7625980E-02 AU
 BOTTOM OF VIRTUAL BANDS - BAND    164; K   27; EIG  1.2085500E-01 AU
 INDIRECT ENERGY BAND GAP:   0.1481 eV
 BOTTOM OF VIRTUAL BANDS - BAND    164; K    1; EIG  1.2586863E-01 AU

    BETA       ELECTRONS
 INSULATING STATE
 TOP OF VALENCE BANDS -    BAND    163; K   93; EIG  1.1541195E-01 AU
 TOP OF VALENCE BANDS -    BAND    163; K    1; EIG  8.7625980E-02 AU
 BOTTOM OF VIRTUAL BANDS - BAND    164; K   27; EIG  1.2085500E-01 AU
 INDIRECT ENERGY BAND GAP:   0.1481 eV
 BOTTOM OF VIRTUAL BANDS - BAND    164; K    1; EIG  1.2586863E-01 AU
 TTTTTTTTTTTTTTTTTTTTTTTTTTTTTT PDIG        TELAPSE    16620.80 TCPU    16567.17
 CHARGE NORMALIZATION FACTOR   1.00000000
 TOTAL ATOMIC CHARGES:
   4.7087787   8.6588572   4.7212417   7.2975313   4.7181889   7.2689841
   4.7117762   7.2882602   4.6708228   7.2900834   4.7182238   7.2689589
   4.7117615   7.2882869   4.7212491   7.2975443   4.6972273   7.2945239
   4.7212302   7.2975491   4.6589288   7.2612458   4.7181980   7.2475159
   4.6708852   7.2900332   4.6589516   7.2612182   4.7119319   7.2936792
   4.7212546   7.2975386   4.7159011   7.3150607   4.7119299   7.2937091
   4.7182224   7.2689883   4.7181885   7.2476225   4.7037842   7.2832895
   4.7182472   7.2689569   4.7119750   7.2937051   5.6103592   7.2930220
   4.6972537   7.2945464   4.7119707   7.2936940   4.7037823   7.2833309
 SUMMED SPIN DENSITY          -0.00000000
 TOTAL ATOMIC SPINS  :
  -0.0000000  -0.0000000   0.0000000   0.0000000   0.0000000   0.0000000
   0.0000000  -0.0000000   0.0000000  -0.0000000  -0.0000000   0.0000000
   0.0000000  -0.0000000  -0.0000000   0.0000000   0.0000000   0.0000000
   0.0000000  -0.0000000  -0.0000000  -0.0000000  -0.0000000   0.0000000
   0.0000000  -0.0000000   0.0000000   0.0000000   0.0000000  -0.0000000
  -0.0000000   0.0000000   0.0000000   0.0000000   0.0000000  -0.0000000
  -0.0000000  -0.0000000   0.0000000  -0.0000000  -0.0000000   0.0000000
  -0.0000000  -0.0000000  -0.0000000   0.0000000  -0.0000000  -0.0000000
   0.0000000   0.0000000   0.0000000  -0.0000000  -0.0000000  -0.0000000
 TTTTTTTTTTTTTTTTTTTTTTTTTTTTTT MOQGAD      TELAPSE    16620.87 TCPU    16567.24
 TTTTTTTTTTTTTTTTTTTTTTTTTTTTTT SHELLXN     TELAPSE    19720.13 TCPU    19657.17
 TTTTTTTTTTTTTTTTTTTTTTTTTTTTTT MONMO3      TELAPSE    19807.19 TCPU    19744.11
 NUMERICALLY INTEGRATED DENSITY    163.0001989369    163.0001989369
 TTTTTTTTTTTTTTTTTTTTTTTTTTTTTT NUMDFT      TELAPSE    19865.55 TCPU    19802.36
 CYC   5 ETOT(AU) -2.181986153603E+03 DETOT  5.79E-04 tst  3.24E-05 PX  1.27E-02
 TTTTTTTTTTTTTTTTTTTTTTTTTTTTTT DIIS        TELAPSE    19866.57 TCPU    19803.37
 DIIS TEST: 0.21475E-01 AT SCF   CYCLE   5 - DIIS ACTIVE - HISTORY:     5 CYCLES
 TTTTTTTTTTTTTTTTTTTTTTTTTTTTTT FDIK        TELAPSE    19924.54 TCPU    19861.02

    ALPHA      ELECTRONS
 INSULATING STATE
 TOP OF VALENCE BANDS -    BAND    163; K   93; EIG  1.1637834E-01 AU
 TOP OF VALENCE BANDS -    BAND    163; K    1; EIG  8.8475805E-02 AU
 BOTTOM OF VIRTUAL BANDS - BAND    164; K   27; EIG  1.2146090E-01 AU
 INDIRECT ENERGY BAND GAP:   0.1383 eV
 BOTTOM OF VIRTUAL BANDS - BAND    164; K    1; EIG  1.2633626E-01 AU

    BETA       ELECTRONS
 INSULATING STATE
 TOP OF VALENCE BANDS -    BAND    163; K   93; EIG  1.1637834E-01 AU
 TOP OF VALENCE BANDS -    BAND    163; K    1; EIG  8.8475805E-02 AU
 BOTTOM OF VIRTUAL BANDS - BAND    164; K   27; EIG  1.2146090E-01 AU
 INDIRECT ENERGY BAND GAP:   0.1383 eV
 BOTTOM OF VIRTUAL BANDS - BAND    164; K    1; EIG  1.2633626E-01 AU
 TTTTTTTTTTTTTTTTTTTTTTTTTTTTTT PDIG        TELAPSE    19929.05 TCPU    19865.35
 CHARGE NORMALIZATION FACTOR   1.00000000
 TOTAL ATOMIC CHARGES:
   4.7110246   8.6434973   4.7189879   7.2858585   4.7257265   7.2756293
   4.7174382   7.2781170   4.6742080   7.2885323   4.7257384   7.2756050
   4.7174268   7.2781291   4.7190020   7.2858705   4.7023918   7.2938725
   4.7189779   7.2858649   4.6421092   7.2562120   4.7183469   7.2479266
   4.6743122   7.2885328   4.6421278   7.2562505   4.7176247   7.2966167
   4.7189938   7.2858680   4.7052544   7.3050418   4.7176186   7.2966404
   4.7257284   7.2756363   4.7183606   7.2480088   4.7150283   7.2918623
   4.7257577   7.2756290   4.7176226   7.2966114   5.6009806   7.2999548
   4.7023901   7.2938736   4.7176095   7.2966052   4.7150474   7.2919182
 SUMMED SPIN DENSITY          -0.00000000
 TOTAL ATOMIC SPINS  :
  -0.0000000   0.0000000   0.0000000   0.0000000   0.0000000  -0.0000000
   0.0000000  -0.0000000   0.0000000  -0.0000000  -0.0000000  -0.0000000
   0.0000000  -0.0000000  -0.0000000   0.0000000   0.0000000   0.0000000
   0.0000000  -0.0000000  -0.0000000  -0.0000000  -0.0000000   0.0000000
   0.0000000  -0.0000000   0.0000000   0.0000000   0.0000000   0.0000000
  -0.0000000  -0.0000000   0.0000000   0.0000000   0.0000000   0.0000000
  -0.0000000  -0.0000000   0.0000000   0.0000000   0.0000000   0.0000000
  -0.0000000  -0.0000000  -0.0000000  -0.0000000  -0.0000000  -0.0000000
   0.0000000   0.0000000   0.0000000  -0.0000000  -0.0000000  -0.0000000
 TTTTTTTTTTTTTTTTTTTTTTTTTTTTTT MOQGAD      TELAPSE    19929.11 TCPU    19865.42
 TTTTTTTTTTTTTTTTTTTTTTTTTTTTTT SHELLXN     TELAPSE    23031.13 TCPU    22957.92
 TTTTTTTTTTTTTTTTTTTTTTTTTTTTTT MONMO3      TELAPSE    23118.53 TCPU    23045.04
 NUMERICALLY INTEGRATED DENSITY    163.0001990003    163.0001990003
 TTTTTTTTTTTTTTTTTTTTTTTTTTTTTT NUMDFT      TELAPSE    23176.82 TCPU    23103.19
 CYC   6 ETOT(AU) -2.181987606258E+03 DETOT -1.45E-03 tst  1.59E-05 PX  8.26E-03
 TTTTTTTTTTTTTTTTTTTTTTTTTTTTTT DIIS        TELAPSE    23177.76 TCPU    23103.87
 DIIS TEST: 0.56902E-03 AT SCF   CYCLE   6 - DIIS ACTIVE - HISTORY:     6 CYCLES
 TTTTTTTTTTTTTTTTTTTTTTTTTTTTTT FDIK        TELAPSE    23232.27 TCPU    23157.58

    ALPHA      ELECTRONS
 INSULATING STATE
 TOP OF VALENCE BANDS -    BAND    163; K   93; EIG  1.1604220E-01 AU
 TOP OF VALENCE BANDS -    BAND    163; K    1; EIG  8.8185254E-02 AU
 BOTTOM OF VIRTUAL BANDS - BAND    164; K   27; EIG  1.2154939E-01 AU
 INDIRECT ENERGY BAND GAP:   0.1499 eV
 BOTTOM OF VIRTUAL BANDS - BAND    164; K    1; EIG  1.2648907E-01 AU

    BETA       ELECTRONS
 INSULATING STATE
 TOP OF VALENCE BANDS -    BAND    163; K   93; EIG  1.1604220E-01 AU
 TOP OF VALENCE BANDS -    BAND    163; K    1; EIG  8.8185254E-02 AU
 BOTTOM OF VIRTUAL BANDS - BAND    164; K   27; EIG  1.2154939E-01 AU
 INDIRECT ENERGY BAND GAP:   0.1499 eV
 BOTTOM OF VIRTUAL BANDS - BAND    164; K    1; EIG  1.2648907E-01 AU
 TTTTTTTTTTTTTTTTTTTTTTTTTTTTTT PDIG        TELAPSE    23236.77 TCPU    23162.03
 CHARGE NORMALIZATION FACTOR   1.00000000
 TOTAL ATOMIC CHARGES:
   4.7106906   8.6486670   4.7189443   7.2862963   4.7261348   7.2753983
   4.7147438   7.2787182   4.6775897   7.2901943   4.7261452   7.2753677
   4.7147407   7.2787260   4.7189482   7.2862863   4.6994176   7.2922856
   4.7189454   7.2862936   4.6451279   7.2581500   4.7182802   7.2497874
   4.6776829   7.2901959   4.6451360   7.2581933   4.7177048   7.2972569
   4.7189497   7.2862895   4.7055917   7.3049082   4.7176971   7.2972643
   4.7261538   7.2754082   4.7182928   7.2498832   4.7139491   7.2909527
   4.7261630   7.2753868   4.7177037   7.2972444   5.5875801   7.2969231
   4.6994110   7.2923068   4.7176939   7.2972406   4.7139479   7.2910093
 SUMMED SPIN DENSITY          -0.00000000
 TOTAL ATOMIC SPINS  :
  -0.0000000  -0.0000000   0.0000000   0.0000000  -0.0000000  -0.0000000
   0.0000000  -0.0000000   0.0000000  -0.0000000  -0.0000000  -0.0000000
   0.0000000   0.0000000  -0.0000000   0.0000000   0.0000000   0.0000000
   0.0000000   0.0000000   0.0000000  -0.0000000  -0.0000000  -0.0000000
   0.0000000  -0.0000000   0.0000000  -0.0000000   0.0000000  -0.0000000
  -0.0000000  -0.0000000  -0.0000000   0.0000000   0.0000000   0.0000000
   0.0000000  -0.0000000   0.0000000   0.0000000   0.0000000   0.0000000
  -0.0000000  -0.0000000   0.0000000  -0.0000000  -0.0000000  -0.0000000
   0.0000000   0.0000000   0.0000000  -0.0000000  -0.0000000  -0.0000000
 TTTTTTTTTTTTTTTTTTTTTTTTTTTTTT MOQGAD      TELAPSE    23236.83 TCPU    23162.09
 TTTTTTTTTTTTTTTTTTTTTTTTTTTTTT SHELLXN     TELAPSE    26338.82 TCPU    26255.56
 TTTTTTTTTTTTTTTTTTTTTTTTTTTTTT MONMO3      TELAPSE    26425.99 TCPU    26342.62
 NUMERICALLY INTEGRATED DENSITY    163.0001990107    163.0001990107
 TTTTTTTTTTTTTTTTTTTTTTTTTTTTTT NUMDFT      TELAPSE    26484.43 TCPU    26400.94
 CYC   7 ETOT(AU) -2.181987639505E+03 DETOT -3.32E-05 tst  1.95E-06 PX  3.48E-03
 TTTTTTTTTTTTTTTTTTTTTTTTTTTTTT DIIS        TELAPSE    26485.53 TCPU    26401.90
 DIIS TEST: 0.23199E-03 AT SCF   CYCLE   7 - DIIS ACTIVE - HISTORY:     7 CYCLES
 TTTTTTTTTTTTTTTTTTTTTTTTTTTTTT FDIK        TELAPSE    26538.61 TCPU    26454.75

    ALPHA      ELECTRONS
 INSULATING STATE
 TOP OF VALENCE BANDS -    BAND    163; K   93; EIG  1.1611472E-01 AU
 TOP OF VALENCE BANDS -    BAND    163; K    1; EIG  8.8315654E-02 AU
 BOTTOM OF VIRTUAL BANDS - BAND    164; K   27; EIG  1.2153681E-01 AU
 INDIRECT ENERGY BAND GAP:   0.1475 eV
 BOTTOM OF VIRTUAL BANDS - BAND    164; K    1; EIG  1.2640310E-01 AU

    BETA       ELECTRONS
 INSULATING STATE
 TOP OF VALENCE BANDS -    BAND    163; K   93; EIG  1.1611472E-01 AU
 TOP OF VALENCE BANDS -    BAND    163; K    1; EIG  8.8315654E-02 AU
 BOTTOM OF VIRTUAL BANDS - BAND    164; K   27; EIG  1.2153681E-01 AU
 INDIRECT ENERGY BAND GAP:   0.1475 eV
 BOTTOM OF VIRTUAL BANDS - BAND    164; K    1; EIG  1.2640310E-01 AU
 TTTTTTTTTTTTTTTTTTTTTTTTTTTTTT PDIG        TELAPSE    26543.22 TCPU    26459.34
 CHARGE NORMALIZATION FACTOR   1.00000000
 TOTAL ATOMIC CHARGES:
   4.7105079   8.6456783   4.7189871   7.2868368   4.7255612   7.2750830
   4.7149105   7.2794504   4.6753233   7.2899052   4.7255699   7.2750542
   4.7149078   7.2794587   4.7189916   7.2868301   4.7001186   7.2936925
   4.7189859   7.2868370   4.6441075   7.2578194   4.7179744   7.2486797
   4.6754160   7.2899019   4.6441116   7.2578622   4.7178191   7.2972645
[...]
                 19 B    (  1  0 -1)     2.935     1.553     0.000
                 33 B    (  0  0  0)     2.943     1.557     0.000
                 32 N    (  1  0 -1)     4.778     2.528    -0.000
                 16 N    (  0  0  0)     4.778     2.528     0.000

 ATOM A  15 B    ATOM B     CELL      R(AB)/AU R(AB)/ANG    OVPOP(AB)
                 46 N    (  0  0  0)     2.928     1.550     0.000
                 50 N    (  0  0  0)     2.929     1.550    -0.000
                  8 N    (  0  0  0)     2.935     1.553     0.000
                 44 N    (  0  0  0)     2.935     1.553    -0.000
                  3 B    (  0  0  0)     4.781     2.530     0.000
                 39 B    (  0  0  0)     4.781     2.530     0.000

 ATOM A  16 N    ATOM B     CELL      R(AB)/AU R(AB)/ANG    OVPOP(AB)
                 21 B    (  0  0  0)     2.872     1.520     0.000
                  5 B    (  0  0  0)     2.935     1.553     0.000
                 23 B    (  1  0  0)     2.935     1.553     0.000
                 35 B    (  0  0  0)     2.943     1.557     0.000
                 32 N    (  1  0 -1)     4.778     2.528     0.000
                 14 N    (  0  0  0)     4.778     2.528     0.000

 ATOM A  17 B    ATOM B     CELL      R(AB)/AU R(AB)/ANG    OVPOP(AB)
                 48 N    (  0  0  0)     2.929     1.550    -0.000
                 52 N    (  0  0  0)     2.929     1.550     0.000
                 46 N    (  0  0  0)     2.929     1.550     0.000
                 10 N    (  0  0  0)     2.935     1.553     0.000
                 49 B    (  0  0  0)     4.776     2.528     0.000
                 41 B    (  0  0  0)     4.776     2.528     0.000

 ATOM A  18 N    ATOM B     CELL      R(AB)/AU R(AB)/ANG    OVPOP(AB)
                 23 B    (  0  0  0)     2.929     1.550    -0.000
                 19 B    (  0  0  0)     2.929     1.550    -0.000
                 31 B    (  0  0  0)     2.929     1.550    -0.000
                  1 B    (  0  0  0)     2.933     1.552    -0.000
                 34 N    (  0  0  0)     4.786     2.533     0.000
                 30 N    (  0  0  0)     4.786     2.533     0.000

 ATOM A  19 B    ATOM B     CELL      R(AB)/AU R(AB)/ANG    OVPOP(AB)
                 36 N    (  0  0  0)     2.928     1.550    -0.000
                 18 N    (  0  0  0)     2.929     1.550    -0.000
                 14 N    ( -1  0  1)     2.935     1.553     0.000
                  6 N    (  0  0  0)     2.935     1.553     0.000
                 31 B    (  0  0  0)     4.781     2.530     0.000
                 23 B    (  0  0  0)     4.782     2.530    -0.000

 ATOM A  20 N    ATOM B     CELL      R(AB)/AU R(AB)/ANG    OVPOP(AB)
                 27 B    ( -1  0  1)     2.872     1.520     0.000
                 43 B    (  0  0  0)     2.935     1.553     0.000
                 39 B    (  0 -1  1)     2.935     1.553     0.000
                 45 B    (  0 -1  1)     2.943     1.557     0.000
                  4 N    ( -1  0  1)     4.778     2.528    -0.000
                  8 N    ( -1  0  1)     4.778     2.528     0.000

 ATOM A  21 B    ATOM B     CELL      R(AB)/AU R(AB)/ANG    OVPOP(AB)
                 16 N    (  0  0  0)     2.872     1.520     0.000
                 32 N    (  1  0 -1)     2.872     1.520     0.000
                 14 N    (  0  0  0)     2.872     1.520     0.000
                  2 O    (  0  1  0)     3.103     1.642    -0.000
                 33 B    (  0  0  0)     4.648     2.460    -0.000
                 35 B    (  0  0  0)     4.648     2.460     0.000

 ATOM A  22 N    ATOM B     CELL      R(AB)/AU R(AB)/ANG    OVPOP(AB)
                 45 B    (  0  0  0)     2.926     1.549     0.000
                 29 B    (  0  0  0)     2.926     1.549     0.000
                 47 C    (  0  0  0)     2.926     1.549    -0.000
                 41 B    (  0  0  0)     2.935     1.553     0.000
                 34 N    (  0  0  0)     4.784     2.532     0.000
                 52 N    (  0  0  0)     4.784     2.532     0.000

 ATOM A  23 B    ATOM B     CELL      R(AB)/AU R(AB)/ANG    OVPOP(AB)
                 34 N    (  0  0  0)     2.928     1.550    -0.000
                 18 N    (  0  0  0)     2.929     1.550    -0.000
                 16 N    ( -1  0  0)     2.935     1.553     0.000
                  4 N    ( -1  1  0)     2.935     1.553    -0.000
                 31 B    (  0  0  0)     4.781     2.530     0.000
                 19 B    (  0  0  0)     4.782     2.530    -0.000

 ATOM A  24 N    ATOM B     CELL      R(AB)/AU R(AB)/ANG    OVPOP(AB)
                 25 B    (  0  1  0)     2.872     1.520    -0.000
                 37 B    (  0  0  0)     2.935     1.553     0.000
                 43 B    (  0  1  0)     2.935     1.553     0.000
                 47 C    (  0  0  0)     2.943     1.557     0.000
                 12 N    (  0  1  0)     4.778     2.528    -0.000
                  6 N    (  0  0  0)     4.778     2.528     0.000

 ATOM A  25 B    ATOM B     CELL      R(AB)/AU R(AB)/ANG    OVPOP(AB)
                 24 N    (  0 -1  0)     2.872     1.520    -0.000
                 12 N    (  0  0  0)     2.872     1.520    -0.000
                  6 N    (  0 -1  0)     2.872     1.520    -0.000
                  2 O    ( -1  0  1)     3.103     1.642     0.000
                 47 C    (  0 -1  0)     4.648     2.460     0.000
                 35 B    ( -1  0  0)     4.648     2.460     0.000

 ATOM A  26 N    ATOM B     CELL      R(AB)/AU R(AB)/ANG    OVPOP(AB)
                 33 B    ( -1  0  1)     2.926     1.549    -0.000
                 51 B    (  0  0  1)     2.926     1.549    -0.000
                 45 B    (  0 -1  1)     2.926     1.549    -0.000
                 49 B    (  0  0  0)     2.935     1.553    -0.000
                 48 N    (  0  0  0)     4.784     2.532    -0.000
                 36 N    (  0  0  0)     4.784     2.532    -0.000

 ATOM A  27 B    ATOM B     CELL      R(AB)/AU R(AB)/ANG    OVPOP(AB)
                  4 N    (  0  0  0)     2.872     1.520    -0.000
                  8 N    (  0  0  0)     2.872     1.520    -0.000
                 20 N    (  1  0 -1)     2.872     1.520     0.000
                  2 O    (  0  0  0)     3.103     1.642    -0.000
                 33 B    (  0  0  0)     4.648     2.460     0.000
                 29 B    (  1 -1  0)     4.648     2.460     0.000

 ATOM A  28 N    ATOM B     CELL      R(AB)/AU R(AB)/ANG    OVPOP(AB)
                 51 B    (  0  0  0)     2.926     1.549     0.000
                 35 B    ( -1  0  0)     2.926     1.549     0.000
                 47 C    (  0 -1  0)     2.926     1.549     0.000
                 53 B    (  0  0  0)     2.935     1.553     0.000
                 34 N    (  0  0  0)     4.784     2.532     0.000
                 46 N    (  0  0  0)     4.784     2.532    -0.000

 ATOM A  29 B    ATOM B     CELL      R(AB)/AU R(AB)/ANG    OVPOP(AB)
                 22 N    (  0  0  0)     2.926     1.549     0.000
                 10 N    ( -1  1  0)     2.926     1.549     0.000
                  6 N    (  0  0  0)     2.943     1.557     0.000
                  4 N    ( -1  1  0)     2.943     1.557    -0.000
                 27 B    ( -1  1  0)     4.648     2.460     0.000
                 25 B    (  0  1  0)     4.648     2.460     0.000

 ATOM A  30 N    ATOM B     CELL      R(AB)/AU R(AB)/ANG    OVPOP(AB)
                 31 B    (  0  0  0)     2.928     1.550     0.000
                 43 B    (  0  0  0)     2.928     1.550     0.000
                 53 B    (  0  0  0)     2.929     1.550     0.000
                 49 B    (  0  0  0)     2.929     1.550     0.000
                 26 N    (  0  0  0)     4.784     2.532     0.000
                 28 N    (  0  0  0)     4.784     2.532     0.000

 ATOM A  31 B    ATOM B     CELL      R(AB)/AU R(AB)/ANG    OVPOP(AB)
                 30 N    (  0  0  0)     2.928     1.550     0.000
                 18 N    (  0  0  0)     2.929     1.550    -0.000
                  8 N    ( -1  0  1)     2.935     1.553     0.000
                 12 N    (  0  0  0)     2.935     1.553    -0.000
                 19 B    (  0  0  0)     4.781     2.530     0.000
                 23 B    (  0  0  0)     4.781     2.530     0.000

 ATOM A  32 N    ATOM B     CELL      R(AB)/AU R(AB)/ANG    OVPOP(AB)
                 21 B    ( -1  0  1)     2.872     1.520     0.000
                 37 B    (  0  0  0)     2.935     1.553    -0.000
                 39 B    (  0  0  1)     2.935     1.553     0.000
                 51 B    (  0  0  1)     2.943     1.557     0.000
                 16 N    ( -1  0  1)     4.778     2.528     0.000
                 14 N    ( -1  0  1)     4.778     2.528    -0.000

 ATOM A  33 B    ATOM B     CELL      R(AB)/AU R(AB)/ANG    OVPOP(AB)
                 10 N    (  0  0  0)     2.926     1.549    -0.000
                 26 N    (  1  0 -1)     2.926     1.549    -0.000
                  8 N    (  0  0  0)     2.943     1.557     0.000
                 14 N    (  0  0  0)     2.943     1.557     0.000
                 27 B    (  0  0  0)     4.648     2.460     0.000
                 21 B    (  0  0  0)     4.648     2.460    -0.000

 ATOM A  34 N    ATOM B     CELL      R(AB)/AU R(AB)/ANG    OVPOP(AB)
                 23 B    (  0  0  0)     2.928     1.550    -0.000
                 39 B    (  0  0  0)     2.928     1.550     0.000
                 53 B    (  0  0  0)     2.929     1.550     0.000
                 41 B    (  0  0  0)     2.929     1.550    -0.000
                 28 N    (  0  0  0)     4.784     2.532     0.000
                 22 N    (  0  0  0)     4.784     2.532     0.000

 ATOM A  35 B    ATOM B     CELL      R(AB)/AU R(AB)/ANG    OVPOP(AB)
                 28 N    (  1  0  0)     2.926     1.549     0.000
                 10 N    (  0  0  0)     2.926     1.549     0.000
                 12 N    (  1  0  0)     2.943     1.557    -0.000
                 16 N    (  0  0  0)     2.943     1.557     0.000
                 25 B    (  1  0  0)     4.648     2.460     0.000
                 21 B    (  0  0  0)     4.648     2.460     0.000

 ATOM A  36 N    ATOM B     CELL      R(AB)/AU R(AB)/ANG    OVPOP(AB)
                 19 B    (  0  0  0)     2.928     1.550    -0.000
                 37 B    (  0  0  0)     2.928     1.550    -0.000
                 41 B    (  0  0  0)     2.929     1.550     0.000
                 49 B    (  0  0  0)     2.929     1.550     0.000
                 26 N    (  0  0  0)     4.784     2.532    -0.000
                 22 N    (  0  0  0)     4.784     2.532    -0.000

 ATOM A  37 B    ATOM B     CELL      R(AB)/AU R(AB)/ANG    OVPOP(AB)
                 36 N    (  0  0  0)     2.928     1.550    -0.000
                 54 N    (  0  0  0)     2.929     1.550    -0.000
                 32 N    (  0  0  0)     2.935     1.553    -0.000
                 24 N    (  0  0  0)     2.935     1.553     0.000
                  5 B    (  0  0  0)     4.781     2.530     0.000
                 13 B    (  0  0  0)     4.782     2.530     0.000

 ATOM A  38 N    ATOM B     CELL      R(AB)/AU R(AB)/ANG    OVPOP(AB)
                  9 B    (  0  1  0)     2.872     1.520     0.000
                  7 B    (  0  1 -1)     2.935     1.553     0.000
                  3 B    (  0  0  0)     2.935     1.553     0.000
                 45 B    (  0  0  0)     2.943     1.557     0.000
                 44 N    (  0  1  0)     4.778     2.528     0.000
                 40 N    (  0  1  0)     4.778     2.528    -0.000

 ATOM A  39 B    ATOM B     CELL      R(AB)/AU R(AB)/ANG    OVPOP(AB)
                 34 N    (  0  0  0)     2.928     1.550     0.000
                 50 N    (  0  0  0)     2.929     1.550    -0.000
                 32 N    (  0  0 -1)     2.935     1.553     0.000
                 20 N    (  0  1 -1)     2.935     1.553     0.000
                 15 B    (  0  0  0)     4.781     2.530     0.000
                  3 B    (  0  0  0)     4.782     2.530     0.000

 ATOM A  40 N    ATOM B     CELL      R(AB)/AU R(AB)/ANG    OVPOP(AB)
                  9 B    (  0  0  0)     2.872     1.520    -0.000
                 11 B    (  0  0  0)     2.935     1.553    -0.000
                  5 B    (  0 -1  0)     2.935     1.553     0.000
                 47 C    (  0 -1  0)     2.943     1.557     0.000
                 38 N    (  0 -1  0)     4.778     2.528    -0.000
                 44 N    (  0  0  0)     4.778     2.528     0.000

 ATOM A  41 B    ATOM B     CELL      R(AB)/AU R(AB)/ANG    OVPOP(AB)
                 52 N    (  0  0  0)     2.929     1.550    -0.000
                 36 N    (  0  0  0)     2.929     1.550     0.000
                 34 N    (  0  0  0)     2.929     1.550    -0.000
                 22 N    (  0  0  0)     2.935     1.553     0.000
                 53 B    (  0  0  0)     4.776     2.528    -0.000
                 17 B    (  0  0  0)     4.776     2.528     0.000

 ATOM A  42 N    ATOM B     CELL      R(AB)/AU R(AB)/ANG    OVPOP(AB)
                 11 B    (  0  0  0)     2.929     1.550    -0.000
                 43 B    (  0  0  0)     2.929     1.550    -0.000
                  7 B    (  0  0  0)     2.929     1.550    -0.000
                  1 B    (  1 -1  0)     2.933     1.552    -0.000
                 48 N    (  0  0  0)     4.786     2.533     0.000
                 30 N    (  0  0  0)     4.786     2.533     0.000

 ATOM A  43 B    ATOM B     CELL      R(AB)/AU R(AB)/ANG    OVPOP(AB)
                 30 N    (  0  0  0)     2.928     1.550     0.000
                 42 N    (  0  0  0)     2.929     1.550    -0.000
                 20 N    (  0  0  0)     2.935     1.553     0.000
                 24 N    (  0 -1  0)     2.935     1.553     0.000
                 11 B    (  0  0  0)     4.781     2.530     0.000
                  7 B    (  0  0  0)     4.782     2.530    -0.000

 ATOM A  44 N    ATOM B     CELL      R(AB)/AU R(AB)/ANG    OVPOP(AB)
                  9 B    (  0  0  0)     2.872     1.520     0.000
                 13 B    (  0  0 -1)     2.935     1.553    -0.000
                 15 B    (  0  0  0)     2.935     1.553    -0.000
                 51 B    (  0  0  0)     2.943     1.557    -0.000
                 38 N    (  0 -1  0)     4.778     2.528     0.000
                 40 N    (  0  0  0)     4.778     2.528     0.000

 ATOM A  45 B    ATOM B     CELL      R(AB)/AU R(AB)/ANG    OVPOP(AB)
                 22 N    (  0  0  0)     2.926     1.549     0.000
                 26 N    (  0  1 -1)     2.926     1.549    -0.000
                 20 N    (  0  1 -1)     2.943     1.557     0.000
                 38 N    (  0  0  0)     2.943     1.557     0.000
                 27 B    ( -1  1  0)     4.648     2.460    -0.000
                  9 B    (  0  1  0)     4.648     2.460    -0.000

 ATOM A  46 N    ATOM B     CELL      R(AB)/AU R(AB)/ANG    OVPOP(AB)
                 15 B    (  0  0  0)     2.928     1.550     0.000
                 11 B    (  0  0  0)     2.928     1.550     0.000
                 53 B    (  0  0  0)     2.929     1.550    -0.000
                 17 B    (  0  0  0)     2.929     1.550     0.000
                 28 N    (  0  0  0)     4.784     2.532    -0.000
                 10 N    (  0  0  0)     4.784     2.532     0.000

 ATOM A  47 C    ATOM B     CELL      R(AB)/AU R(AB)/ANG    OVPOP(AB)
                 22 N    (  0  0  0)     2.926     1.549    -0.000
                 28 N    (  0  1  0)     2.926     1.549     0.000
                 40 N    (  0  1  0)     2.943     1.557     0.000
                 24 N    (  0  0  0)     2.943     1.557     0.000
                 25 B    (  0  1  0)     4.648     2.460     0.000
                  9 B    (  0  1  0)     4.648     2.460    -0.000

 ATOM A  48 N    ATOM B     CELL      R(AB)/AU R(AB)/ANG    OVPOP(AB)
                 13 B    (  0  0  0)     2.928     1.550     0.000
                  7 B    (  0  0  0)     2.928     1.550    -0.000
                 17 B    (  0  0  0)     2.929     1.550    -0.000
                 49 B    (  0  0  0)     2.929     1.550    -0.000
                 10 N    (  0  0  0)     4.784     2.532    -0.000
                 26 N    (  0  0  0)     4.784     2.532    -0.000

 ATOM A  49 B    ATOM B     CELL      R(AB)/AU R(AB)/ANG    OVPOP(AB)
                 48 N    (  0  0  0)     2.929     1.550    -0.000
                 36 N    (  0  0  0)     2.929     1.550     0.000
                 30 N    (  0  0  0)     2.929     1.550     0.000
                 26 N    (  0  0  0)     2.935     1.553    -0.000
                 17 B    (  0  0  0)     4.776     2.528     0.000
                 53 B    (  0  0  0)     4.777     2.528    -0.000

 ATOM A  50 N    ATOM B     CELL      R(AB)/AU R(AB)/ANG    OVPOP(AB)
                 39 B    (  0  0  0)     2.929     1.550    -0.000
                 15 B    (  0  0  0)     2.929     1.550    -0.000
                  3 B    (  0  0  0)     2.929     1.550    -0.000
                  1 B    (  1  0 -1)     2.933     1.552     0.000
                 34 N    (  0  0  0)     4.786     2.533    -0.000
                 52 N    (  0  0  0)     4.786     2.533     0.000

 ATOM A  51 B    ATOM B     CELL      R(AB)/AU R(AB)/ANG    OVPOP(AB)
                 28 N    (  0  0  0)     2.926     1.549     0.000
                 26 N    (  0  0 -1)     2.926     1.549    -0.000
                 32 N    (  0  0 -1)     2.943     1.557     0.000
                 44 N    (  0  0  0)     2.943     1.557    -0.000
                  9 B    (  0  0  0)     4.648     2.460    -0.000
                 21 B    ( -1  0  0)     4.648     2.460    -0.000

 ATOM A  52 N    ATOM B     CELL      R(AB)/AU R(AB)/ANG    OVPOP(AB)
                  3 B    (  0  0  0)     2.928     1.550    -0.000
                  5 B    (  0  0  0)     2.928     1.550     0.000
                 41 B    (  0  0  0)     2.929     1.550    -0.000
                 17 B    (  0  0  0)     2.929     1.550     0.000
                 22 N    (  0  0  0)     4.784     2.532     0.000
                 10 N    (  0  0  0)     4.784     2.532     0.000

 ATOM A  53 B    ATOM B     CELL      R(AB)/AU R(AB)/ANG    OVPOP(AB)
                 30 N    (  0  0  0)     2.929     1.550     0.000
                 46 N    (  0  0  0)     2.929     1.550    -0.000
                 34 N    (  0  0  0)     2.929     1.550     0.000
                 28 N    (  0  0  0)     2.935     1.553     0.000
                 41 B    (  0  0  0)     4.776     2.528    -0.000
                 17 B    (  0  0  0)     4.776     2.528     0.000

 ATOM A  54 N    ATOM B     CELL      R(AB)/AU R(AB)/ANG    OVPOP(AB)
                  5 B    (  0  0  0)     2.929     1.550    -0.000
                 37 B    (  0  0  0)     2.929     1.550    -0.000
                 13 B    (  0  0  0)     2.929     1.550    -0.000
                  1 B    (  1  0  0)     2.933     1.552    -0.000
                 48 N    (  0  0  0)     4.786     2.533    -0.000
                 36 N    (  0  0  0)     4.786     2.533    -0.000
 EIGENVECTORS IN FORTRAN UNIT  8
 TTTTTTTTTTTTTTTTTTTTTTTTTTTTTT END         TELAPSE    43028.46 TCPU    42912.09
 EEEEEEEEEE TERMINATION  DATE 23 03 2023 TIME 02:11:43.7
NODE    0 CPU TIME =     42912.094
NODE    1 CPU TIME =     42987.571
NODE    2 CPU TIME =     42996.496
NODE    3 CPU TIME =     43000.068
NODE    4 CPU TIME =     42994.645
NODE    5 CPU TIME =     42997.209
NODE    6 CPU TIME =     43002.770
NODE    7 CPU TIME =     42996.170
NODE    8 CPU TIME =     43003.208
NODE    9 CPU TIME =     43000.480
NODE   10 CPU TIME =     43003.333
NODE   11 CPU TIME =     42995.918
NODE   12 CPU TIME =     43014.717
NODE   13 CPU TIME =     43017.930
NODE   14 CPU TIME =     43016.912
NODE   15 CPU TIME =     43017.562
    TOTAL CPU TIME =    687957.084
