
         
 *******************************************************************************
 *                                                                             *
 *                               CRYSTAL17                                     *
 *                      public : 1.0.2 - March 1st, 2018                       *
 *                       HTTP://WWW.CRYSTAL.UNITO.IT                           *
 *                                                                             *
 *                              MAIN AUTHORS                                   *
 *                                                                             *
 *  R. DOVESI(1,11), V.R. SAUNDERS(2), C. ROETTI(1,11), R. ORLANDO(1,11),      *
 *  C.M. ZICOVICH-WILSON(1,3), F. PASCALE(4), B. CIVALLERI(1,11),              *
 *  K. DOLL(5), N.M. HARRISON(2,6), I.J. BUSH(7), Ph. D'ARCO(8),               *
 *  M. LLUNELL(9), M. CAUSA'(10), Y. NOEL(8), L. MASCHIO(1,11), A. ERBA(1,11)  *
 *  M. RE'RAT(14), S. CASASSA(1,11)                                            *
 *                                                                             *
 *        CONTRIBUTIONS TO THE CODE HAVE ALSO BEEN GIVEN BY                    *
 *                                                                             *
 *  M. FERRABONE(1,11), M. DE LA PIERRE(1,11), M. FERRERO(1,11),               *
 *  J. BAIMA(1,11), E. ALBANESE(1,11), M.F. PEINTINGER(12), R. BAST(13),       *
 *  B. KIRTMAN(15), V. LACIVITA(1,11), R. DEMICHELIS(1,16)                     *
 *  G. BRANDEBURG(17), S. SALUSTRO(1,11), G. SANSONE(1,11)                     *
 *  M.T. RUGGIERO(18)                                                          *
 *                                                                             *
 * (1) THEORETICAL CHEMISTRY GROUP - UNIVERSITA' DI TORINO - TORINO (ITALY)    *
 * (2) COMPUTATIONAL SCIENCE & ENGINEERING DEPARTMENT - STFC DARESBURY (UK)    *
 * (3) UNIVERSIDAD AUTONOMA DEL ESTADO DE MORELOS - CUERNAVACA (MEXICO)        *
 * (4) UNIVERSITE' DE LORRAINE - NANCY (FRANCE)                                *
 * (5) UNIVERSITAET STUTTGART- STUTTGART (GERMANY)                             *
 * (6) IMPERIAL COLLEGE - LONDON (UK)                                          *
 * (7) OXFORD E-RESEARCH CENTRE - OXFORD (UK)                                  *
 * (8) UPMC - SORBONNE UNIVERSITES - PARIS (FRANCE)                            *
 * (9) UNIVERSIDAD DE BARCELONA - BARCELONA (SPAIN)                            *
 *(10) UNIVERSITA' DI NAPOLI "FEDERICO II" - NAPOLI (ITALY)                    *
 *(11) NIS - NANOSTRUCTURED INTERFACES AND SURFACES - TORINO (ITALY)           *
 *(12) MPI FUER CHEMISCHE ENERGIEKONVERSION - MUELHEIM AN DER RUHR (GERMANY)   *
 *(13) UNIVERSITY OF TROMSO - TROMSO (NORWAY)                                  *
 *(14) UNIVERSITE' DE PAU ET DES PAYS DE L'ADOUR - PAU (FRANCE)                *
 *(15) UNIVERSITY OF CALIFORNIA SANTA BARBARA - SANTA BARBARA (USA)            *
 *(16) CURTIN UNIVERSITY - PERTH (AUSTRALIA)                                   *
 *(17) UNIVERSITY COLLEGE LONDON - LONDON (UK)                                 *
 *(18) CAMBRIDGE UNIVERSITY - CAMBRIDGE (UK)                                   *
 *                                                                             *
 *******************************************************************************
 EEEEEEEEEE STARTING  DATE 09 09 2021 TIME 10:27:24.3
 SLAB HSE06-D3 2D-COF Cr1-Triazine Date 04.06.2020                               

 SLAB CALCULATION
 SYSTEM AND LATTICE                   :  HEXAGONAL   
 TWO-SIDED PLANE GROUP N. 78          :  P -6 M 2        
 CORRESPONDING SPACE GROUP N. 187

 LATTICE PARAMETERS  (ANGSTROMS AND DEGREES) - CONVENTIONAL CELL
           A              B            GAMMA
       14.85390       14.85390      120.00000


 NUMBER OF IRREDUCIBLE ATOMS IN THE CONVENTIONAL CELL:   11

 INPUT COORDINATES

 ATOM AT. N.              COORDINATES
   1   6     5.498100000000E-01  6.121600000000E-01  1.655817000000E+00
   2   6     6.030600000000E-01  4.462000000000E-02  1.655817000000E+00
   3   1     1.055300000000E-01  4.094300000000E-01  1.655817000000E+00
   4   1     6.872400000000E-01  6.004400000000E-01  1.655817000000E+00
   5   6     3.843300000000E-01  6.156700000000E-01  1.655817000000E+00
   6   6     4.415000000000E-01  5.585000000000E-01  1.655817000000E+00
   7   5     6.089100000000E-01  3.910900000000E-01  1.655817000000E+00
   8   7     2.803900000000E-01  7.196100000000E-01  1.655817000000E+00
   9   6     5.500200000000E-01  4.499800000000E-01  1.655817000000E+00
  10   8     7.207500000000E-01  2.792500000000E-01  1.655817000000E+00
  11  24     6.666700000000E-01  3.333300000000E-01  0.000000000000E+00

 *******************************************************************************

 << INFORMATION >>: FROM NOW ON, ALL COORDINATES REFER TO THE PRIMITIVE CELL

 *******************************************************************************

 LATTICE PARAMETERS  (ANGSTROMS AND DEGREES) - PRIMITIVE CELL
       A          B          C        ALPHA      BETA     GAMMA        VOLUME
   14.85390   14.85390  500.00000    90.00000  90.00000 120.00000    191.078412

 COORDINATES OF THE EQUIVALENT ATOMS 
 (X AND Y IN FRACTIONARY UNITS, Z IN ANGSTROMS)

 N. ATOM EQUIV AT. N.          X                  Y                  Z

   1   1   1    6 C    -4.50190000000E-01 -3.87840000000E-01  1.65581700000E+00
   2   1   2    6 C     3.87840000000E-01 -6.23500000000E-02  1.65581700000E+00
   3   1   3    6 C     6.23500000000E-02  4.50190000000E-01  1.65581700000E+00
   4   1   4    6 C     3.87840000000E-01  4.50190000000E-01 -1.65581700000E+00
   5   1   5    6 C    -4.50190000000E-01 -6.23500000000E-02 -1.65581700000E+00
   6   1   6    6 C     6.23500000000E-02 -3.87840000000E-01 -1.65581700000E+00
   7   1   7    6 C     6.23500000000E-02 -3.87840000000E-01  1.65581700000E+00
   8   1   8    6 C    -4.50190000000E-01 -6.23500000000E-02  1.65581700000E+00
   9   1   9    6 C     3.87840000000E-01  4.50190000000E-01  1.65581700000E+00
  10   1  10    6 C    -4.50190000000E-01 -3.87840000000E-01 -1.65581700000E+00
  11   1  11    6 C     6.23500000000E-02  4.50190000000E-01 -1.65581700000E+00
  12   1  12    6 C     3.87840000000E-01 -6.23500000000E-02 -1.65581700000E+00

  13   2   1    6 C    -3.96940000000E-01  4.46200000000E-02  1.65581700000E+00
  14   2   2    6 C    -4.46200000000E-02 -4.41560000000E-01  1.65581700000E+00
  15   2   3    6 C     4.41560000000E-01  3.96940000000E-01  1.65581700000E+00
  16   2   4    6 C    -4.46200000000E-02  3.96940000000E-01 -1.65581700000E+00
  17   2   5    6 C    -3.96940000000E-01 -4.41560000000E-01 -1.65581700000E+00
  18   2   6    6 C     4.41560000000E-01  4.46200000000E-02 -1.65581700000E+00
  19   2   7    6 C     4.41560000000E-01  4.46200000000E-02  1.65581700000E+00
  20   2   8    6 C    -3.96940000000E-01 -4.41560000000E-01  1.65581700000E+00
  21   2   9    6 C    -4.46200000000E-02  3.96940000000E-01  1.65581700000E+00
  22   2  10    6 C    -3.96940000000E-01  4.46200000000E-02 -1.65581700000E+00
  23   2  11    6 C     4.41560000000E-01  3.96940000000E-01 -1.65581700000E+00
  24   2  12    6 C    -4.46200000000E-02 -4.41560000000E-01 -1.65581700000E+00

  25   3   1    1 H     1.05530000000E-01  4.09430000000E-01  1.65581700000E+00
  26   3   2    1 H    -4.09430000000E-01 -3.03900000000E-01  1.65581700000E+00
  27   3   3    1 H     3.03900000000E-01 -1.05530000000E-01  1.65581700000E+00
  28   3   4    1 H    -4.09430000000E-01 -1.05530000000E-01 -1.65581700000E+00
  29   3   5    1 H     1.05530000000E-01 -3.03900000000E-01 -1.65581700000E+00
  30   3   6    1 H     3.03900000000E-01  4.09430000000E-01 -1.65581700000E+00
  31   3   7    1 H     3.03900000000E-01  4.09430000000E-01  1.65581700000E+00
  32   3   8    1 H     1.05530000000E-01 -3.03900000000E-01  1.65581700000E+00
  33   3   9    1 H    -4.09430000000E-01 -1.05530000000E-01  1.65581700000E+00
  34   3  10    1 H     1.05530000000E-01  4.09430000000E-01 -1.65581700000E+00
  35   3  11    1 H     3.03900000000E-01 -1.05530000000E-01 -1.65581700000E+00
  36   3  12    1 H    -4.09430000000E-01 -3.03900000000E-01 -1.65581700000E+00

  37   4   1    1 H    -3.12760000000E-01 -3.99560000000E-01  1.65581700000E+00
  38   4   2    1 H     3.99560000000E-01  8.68000000000E-02  1.65581700000E+00
  39   4   3    1 H    -8.68000000000E-02  3.12760000000E-01  1.65581700000E+00
  40   4   4    1 H     3.99560000000E-01  3.12760000000E-01 -1.65581700000E+00
  41   4   5    1 H    -3.12760000000E-01  8.68000000000E-02 -1.65581700000E+00
  42   4   6    1 H    -8.68000000000E-02 -3.99560000000E-01 -1.65581700000E+00
  43   4   7    1 H    -8.68000000000E-02 -3.99560000000E-01  1.65581700000E+00
  44   4   8    1 H    -3.12760000000E-01  8.68000000000E-02  1.65581700000E+00
  45   4   9    1 H     3.99560000000E-01  3.12760000000E-01  1.65581700000E+00
  46   4  10    1 H    -3.12760000000E-01 -3.99560000000E-01 -1.65581700000E+00
  47   4  11    1 H    -8.68000000000E-02  3.12760000000E-01 -1.65581700000E+00
  48   4  12    1 H     3.99560000000E-01  8.68000000000E-02 -1.65581700000E+00

  49   5   1    6 C     3.84330000000E-01 -3.84330000000E-01  1.65581700000E+00
  50   5   2    6 C     3.84330000000E-01 -2.31340000000E-01  1.65581700000E+00
  51   5   3    6 C     2.31340000000E-01 -3.84330000000E-01  1.65581700000E+00
  52   5   4    6 C     3.84330000000E-01 -3.84330000000E-01 -1.65581700000E+00
  53   5   5    6 C     3.84330000000E-01 -2.31340000000E-01 -1.65581700000E+00
  54   5   6    6 C     2.31340000000E-01 -3.84330000000E-01 -1.65581700000E+00

  55   6   1    6 C     4.41500000000E-01 -4.41500000000E-01  1.65581700000E+00
  56   6   2    6 C     4.41500000000E-01 -1.17000000000E-01  1.65581700000E+00
  57   6   3    6 C     1.17000000000E-01 -4.41500000000E-01  1.65581700000E+00
  58   6   4    6 C     4.41500000000E-01 -4.41500000000E-01 -1.65581700000E+00
  59   6   5    6 C     4.41500000000E-01 -1.17000000000E-01 -1.65581700000E+00
  60   6   6    6 C     1.17000000000E-01 -4.41500000000E-01 -1.65581700000E+00

  61   7   1    5 B    -3.91090000000E-01  3.91090000000E-01  1.65581700000E+00
  62   7   2    5 B    -3.91090000000E-01  2.17820000000E-01  1.65581700000E+00
  63   7   3    5 B    -2.17820000000E-01  3.91090000000E-01  1.65581700000E+00
  64   7   4    5 B    -3.91090000000E-01  3.91090000000E-01 -1.65581700000E+00
  65   7   5    5 B    -3.91090000000E-01  2.17820000000E-01 -1.65581700000E+00
  66   7   6    5 B    -2.17820000000E-01  3.91090000000E-01 -1.65581700000E+00

  67   8   1    7 N     2.80390000000E-01 -2.80390000000E-01  1.65581700000E+00
  68   8   2    7 N     2.80390000000E-01 -4.39220000000E-01  1.65581700000E+00
  69   8   3    7 N     4.39220000000E-01 -2.80390000000E-01  1.65581700000E+00
  70   8   4    7 N     2.80390000000E-01 -2.80390000000E-01 -1.65581700000E+00
  71   8   5    7 N     2.80390000000E-01 -4.39220000000E-01 -1.65581700000E+00
  72   8   6    7 N     4.39220000000E-01 -2.80390000000E-01 -1.65581700000E+00

  73   9   1    6 C    -4.49980000000E-01  4.49980000000E-01  1.65581700000E+00
  74   9   2    6 C    -4.49980000000E-01  1.00040000000E-01  1.65581700000E+00
  75   9   3    6 C    -1.00040000000E-01  4.49980000000E-01  1.65581700000E+00
  76   9   4    6 C    -4.49980000000E-01  4.49980000000E-01 -1.65581700000E+00
  77   9   5    6 C    -4.49980000000E-01  1.00040000000E-01 -1.65581700000E+00
  78   9   6    6 C    -1.00040000000E-01  4.49980000000E-01 -1.65581700000E+00

  79  10   1    8 O    -2.79250000000E-01  2.79250000000E-01  1.65581700000E+00
  80  10   2    8 O    -2.79250000000E-01  4.41500000000E-01  1.65581700000E+00
  81  10   3    8 O    -4.41500000000E-01  2.79250000000E-01  1.65581700000E+00
  82  10   4    8 O    -2.79250000000E-01  2.79250000000E-01 -1.65581700000E+00
  83  10   5    8 O    -2.79250000000E-01  4.41500000000E-01 -1.65581700000E+00
  84  10   6    8 O    -4.41500000000E-01  2.79250000000E-01 -1.65581700000E+00

  85  11   1   24 CR   -3.33330000000E-01  3.33330000000E-01  0.00000000000E+00

 NUMBER OF SYMMETRY OPERATORS         :   12
 *******************************************************************************
 * GEOMETRY EDITING - INPUT COORDINATES ARE GIVEN IN ANGSTROM         
 *******************************************************************************

 GEOMETRY NOW FULLY CONSISTENT WITH THE GROUP
 INFORMATION **** NEW DEFAULT **** FINALRUN 4 FOR GEOMETRY OPTIMIZATIONS
 INFORMATION **** NEW DEFAULT **** OPTGEOM OPTIMIZES BOTH ATOMIC COORDINATES AND CELL PARAMETERS
 INFORMATION **** NEW DEFAULT **** TOL. ON ATOMIC DISP TO REDEFINE REF. GEOMETRY: 0.8 Angs
 INFORMATION **** NEW DEFAULT **** N POINTS TO REDEFINE REF. GEOMETRY: N OF OPT DEGS OF FREEDOM
 INFORMATION **** NEW DEFAULT **** TOL. ON ENERGY TO REDEFINE REF. GEOMETRY: 10**-3*(5*N. ATOMS)
 INFORMATION **** FULLOPTG **** FULL OPTIMIZATION (ATOMS AND CELL PARAMETERS)
 INFORMATION **** MAXCYCLE ****   MAXIMUM NUMBER OF OPTIMIZATION CYCLES         800

 IMPORTANT INFORMATION:
 THE COORDINATE SYSTEM ADOPTED IN THE OPTIMIZATION IS NOT IN
 GENERAL HOMOGENEOUS UNITS. FOR THIS REASON THE GRADIENT AND 
 HESSIAN MATRIX IN TERMS OF THIS SYSTEM ARE GIVEN WITHOUT
 UNITS. FOR MORE DETAILS SEE THE MANUAL.

 *******************************************************************************
 COMBINED CELL/ATOM OPTIMIZATION CONTROL

 INITIAL TRUST RADIUS         0.50000 MAXIMUM TRUST RADIUS               4.00000
 MAXIMUM GRADIENT COMPONENT   0.00045 MAXIMUM DISPLACEMENT COMPONENT     0.00180
 R.M.S. OF GRADIENT COMPONENT 0.00030 R.M.S. OF DISPLACEMENT COMPONENTS  0.00120
 THRESHOLD ON ENERGY CHANGE 0.100E-06 EXTRAPOLATING POLYNOMIAL ORDER           2
 MAXIMUM ALLOWED NUMBER OF STEPS  800 SORTING OF ENERGY POINTS:               NO
 ANALYTICAL  GRADIENT                 HESSIAN UPDATING                      BFGS
 STEP SIZE NUMERICAL GRADIENT 0.00100
 INITIAL HESSIAN MATRIX: SCHLEGEL MODEL 2
 *******************************************************************************


 GCALCO - MAX INDICES DIRECT LATTICE VECTOR    83    83     0
 NO.OF VECTORS CREATED 6999 STARS  503 RMAX  1234.11404 BOHR

 GEOMETRY FOR WAVE FUNCTION - DIMENSIONALITY OF THE SYSTEM    2
 (NON PERIODIC DIRECTION: LATTICE PARAMETER FORMALLY SET TO 500)
 *******************************************************************************
 LATTICE PARAMETERS (ANGSTROMS AND DEGREES) - BOHR = 0.5291772083 ANGSTROM
 PRIMITIVE CELL
         A              B              C           ALPHA      BETA       GAMMA 
    14.85390000    14.85390000   500.00000000    90.000000  90.000000 120.000000
 *******************************************************************************
 ATOMS IN THE ASYMMETRIC UNIT   11 - ATOMS IN THE UNIT CELL:   85
     ATOM                 X/A                 Y/B             Z(ANGSTROM)
 *******************************************************************************
      1 T   6 C    -4.501900000000E-01 -3.878400000000E-01  1.655817000000E+00
      2 F   6 C     3.878400000000E-01 -6.235000000000E-02  1.655817000000E+00
      3 F   6 C     6.235000000000E-02  4.501900000000E-01  1.655817000000E+00
      4 F   6 C     3.878400000000E-01  4.501900000000E-01 -1.655817000000E+00
      5 F   6 C    -4.501900000000E-01 -6.235000000000E-02 -1.655817000000E+00
      6 F   6 C     6.235000000000E-02 -3.878400000000E-01 -1.655817000000E+00
      7 F   6 C     6.235000000000E-02 -3.878400000000E-01  1.655817000000E+00
      8 F   6 C    -4.501900000000E-01 -6.235000000000E-02  1.655817000000E+00
      9 F   6 C     3.878400000000E-01  4.501900000000E-01  1.655817000000E+00
     10 F   6 C    -4.501900000000E-01 -3.878400000000E-01 -1.655817000000E+00
     11 F   6 C     6.235000000000E-02  4.501900000000E-01 -1.655817000000E+00
     12 F   6 C     3.878400000000E-01 -6.235000000000E-02 -1.655817000000E+00
     13 T   6 C    -3.969400000000E-01  4.462000000000E-02  1.655817000000E+00
     14 F   6 C    -4.462000000000E-02 -4.415600000000E-01  1.655817000000E+00
     15 F   6 C     4.415600000000E-01  3.969400000000E-01  1.655817000000E+00
     16 F   6 C    -4.462000000000E-02  3.969400000000E-01 -1.655817000000E+00
     17 F   6 C    -3.969400000000E-01 -4.415600000000E-01 -1.655817000000E+00
     18 F   6 C     4.415600000000E-01  4.462000000000E-02 -1.655817000000E+00
     19 F   6 C     4.415600000000E-01  4.462000000000E-02  1.655817000000E+00
     20 F   6 C    -3.969400000000E-01 -4.415600000000E-01  1.655817000000E+00
     21 F   6 C    -4.462000000000E-02  3.969400000000E-01  1.655817000000E+00
     22 F   6 C    -3.969400000000E-01  4.462000000000E-02 -1.655817000000E+00
     23 F   6 C     4.415600000000E-01  3.969400000000E-01 -1.655817000000E+00
     24 F   6 C    -4.462000000000E-02 -4.415600000000E-01 -1.655817000000E+00
     25 T   1 H     1.055300000000E-01  4.094300000000E-01  1.655817000000E+00
     26 F   1 H    -4.094300000000E-01 -3.039000000000E-01  1.655817000000E+00
     27 F   1 H     3.039000000000E-01 -1.055300000000E-01  1.655817000000E+00
     28 F   1 H    -4.094300000000E-01 -1.055300000000E-01 -1.655817000000E+00
     29 F   1 H     1.055300000000E-01 -3.039000000000E-01 -1.655817000000E+00
     30 F   1 H     3.039000000000E-01  4.094300000000E-01 -1.655817000000E+00
     31 F   1 H     3.039000000000E-01  4.094300000000E-01  1.655817000000E+00
     32 F   1 H     1.055300000000E-01 -3.039000000000E-01  1.655817000000E+00
     33 F   1 H    -4.094300000000E-01 -1.055300000000E-01  1.655817000000E+00
     34 F   1 H     1.055300000000E-01  4.094300000000E-01 -1.655817000000E+00
     35 F   1 H     3.039000000000E-01 -1.055300000000E-01 -1.655817000000E+00
     36 F   1 H    -4.094300000000E-01 -3.039000000000E-01 -1.655817000000E+00
     37 T   1 H    -3.127600000000E-01 -3.995600000000E-01  1.655817000000E+00
     38 F   1 H     3.995600000000E-01  8.680000000000E-02  1.655817000000E+00
     39 F   1 H    -8.680000000000E-02  3.127600000000E-01  1.655817000000E+00
     40 F   1 H     3.995600000000E-01  3.127600000000E-01 -1.655817000000E+00
     41 F   1 H    -3.127600000000E-01  8.680000000000E-02 -1.655817000000E+00
     42 F   1 H    -8.680000000000E-02 -3.995600000000E-01 -1.655817000000E+00
     43 F   1 H    -8.680000000000E-02 -3.995600000000E-01  1.655817000000E+00
     44 F   1 H    -3.127600000000E-01  8.680000000000E-02  1.655817000000E+00
     45 F   1 H     3.995600000000E-01  3.127600000000E-01  1.655817000000E+00
     46 F   1 H    -3.127600000000E-01 -3.995600000000E-01 -1.655817000000E+00
     47 F   1 H    -8.680000000000E-02  3.127600000000E-01 -1.655817000000E+00
     48 F   1 H     3.995600000000E-01  8.680000000000E-02 -1.655817000000E+00
     49 T   6 C     3.843300000000E-01 -3.843300000000E-01  1.655817000000E+00
     50 F   6 C     3.843300000000E-01 -2.313400000000E-01  1.655817000000E+00
     51 F   6 C     2.313400000000E-01 -3.843300000000E-01  1.655817000000E+00
     52 F   6 C     3.843300000000E-01 -3.843300000000E-01 -1.655817000000E+00
     53 F   6 C     3.843300000000E-01 -2.313400000000E-01 -1.655817000000E+00
     54 F   6 C     2.313400000000E-01 -3.843300000000E-01 -1.655817000000E+00
     55 T   6 C     4.415000000000E-01 -4.415000000000E-01  1.655817000000E+00
     56 F   6 C     4.415000000000E-01 -1.170000000000E-01  1.655817000000E+00
     57 F   6 C     1.170000000000E-01 -4.415000000000E-01  1.655817000000E+00
     58 F   6 C     4.415000000000E-01 -4.415000000000E-01 -1.655817000000E+00
     59 F   6 C     4.415000000000E-01 -1.170000000000E-01 -1.655817000000E+00
     60 F   6 C     1.170000000000E-01 -4.415000000000E-01 -1.655817000000E+00
     61 T   5 B    -3.910900000000E-01  3.910900000000E-01  1.655817000000E+00
     62 F   5 B    -3.910900000000E-01  2.178200000000E-01  1.655817000000E+00
     63 F   5 B    -2.178200000000E-01  3.910900000000E-01  1.655817000000E+00
     64 F   5 B    -3.910900000000E-01  3.910900000000E-01 -1.655817000000E+00
     65 F   5 B    -3.910900000000E-01  2.178200000000E-01 -1.655817000000E+00
     66 F   5 B    -2.178200000000E-01  3.910900000000E-01 -1.655817000000E+00
     67 T   7 N     2.803900000000E-01 -2.803900000000E-01  1.655817000000E+00
     68 F   7 N     2.803900000000E-01 -4.392200000000E-01  1.655817000000E+00
     69 F   7 N     4.392200000000E-01 -2.803900000000E-01  1.655817000000E+00
     70 F   7 N     2.803900000000E-01 -2.803900000000E-01 -1.655817000000E+00
     71 F   7 N     2.803900000000E-01 -4.392200000000E-01 -1.655817000000E+00
     72 F   7 N     4.392200000000E-01 -2.803900000000E-01 -1.655817000000E+00
     73 T   6 C    -4.499800000000E-01  4.499800000000E-01  1.655817000000E+00
     74 F   6 C    -4.499800000000E-01  1.000400000000E-01  1.655817000000E+00
     75 F   6 C    -1.000400000000E-01  4.499800000000E-01  1.655817000000E+00
     76 F   6 C    -4.499800000000E-01  4.499800000000E-01 -1.655817000000E+00
     77 F   6 C    -4.499800000000E-01  1.000400000000E-01 -1.655817000000E+00
     78 F   6 C    -1.000400000000E-01  4.499800000000E-01 -1.655817000000E+00
     79 T   8 O    -2.792500000000E-01  2.792500000000E-01  1.655817000000E+00
     80 F   8 O    -2.792500000000E-01  4.415000000000E-01  1.655817000000E+00
     81 F   8 O    -4.415000000000E-01  2.792500000000E-01  1.655817000000E+00
     82 F   8 O    -2.792500000000E-01  2.792500000000E-01 -1.655817000000E+00
     83 F   8 O    -2.792500000000E-01  4.415000000000E-01 -1.655817000000E+00
     84 F   8 O    -4.415000000000E-01  2.792500000000E-01 -1.655817000000E+00
     85 T  24 CR   -3.333333333333E-01  3.333333333333E-01  0.000000000000E+00

 T = ATOM BELONGING TO THE ASYMMETRIC UNIT

 ****   12 SYMMOPS - TRANSLATORS IN FRACTIONAL UNITS
 **** MATRICES AND TRANSLATORS IN THE CRYSTALLOGRAPHIC REFERENCE FRAME
   V INV                    ROTATION MATRICES                   TRANSLATORS
   1   1  1.00  0.00  0.00  0.00  1.00  0.00  0.00  0.00  1.00  0.00  0.00  0.00
   2   3  0.00 -1.00  0.00  1.00 -1.00  0.00  0.00  0.00  1.00  0.00  0.00  0.00
   3   2 -1.00  1.00  0.00 -1.00  0.00  0.00  0.00  0.00  1.00  0.00  0.00  0.00
   4   4  0.00 -1.00  0.00 -1.00  0.00  0.00  0.00  0.00 -1.00  0.00  0.00  0.00
   5   5  1.00  0.00  0.00  1.00 -1.00  0.00  0.00  0.00 -1.00  0.00  0.00  0.00
   6   6 -1.00  1.00  0.00  0.00  1.00  0.00  0.00  0.00 -1.00  0.00  0.00  0.00
   7   7 -1.00  1.00  0.00  0.00  1.00  0.00  0.00  0.00  1.00  0.00  0.00  0.00
   8   8  1.00  0.00  0.00  1.00 -1.00  0.00  0.00  0.00  1.00  0.00  0.00  0.00
   9   9  0.00 -1.00  0.00 -1.00  0.00  0.00  0.00  0.00  1.00  0.00  0.00  0.00
  10  10  1.00  0.00  0.00  0.00  1.00  0.00  0.00  0.00 -1.00  0.00  0.00  0.00
  11  12 -1.00  1.00  0.00 -1.00  0.00  0.00  0.00  0.00 -1.00  0.00  0.00  0.00
  12  11  0.00 -1.00  0.00  1.00 -1.00  0.00  0.00  0.00 -1.00  0.00  0.00  0.00

 DIRECT LATTICE VECTORS CARTESIAN COMPONENTS (ANGSTROM)
          X                    Y                    Z
   0.128638547453E+02  -0.742695000000E+01   0.000000000000E+00
   0.000000000000E+00   0.148539000000E+02   0.000000000000E+00
   0.000000000000E+00   0.000000000000E+00   0.500000000000E+03


 CARTESIAN COORDINATES - PRIMITIVE CELL
 *******************************************************************************
 *      ATOM          X(ANGSTROM)         Y(ANGSTROM)         Z(ANGSTROM)
 *******************************************************************************
    1     6 C    -5.791178767775E+00 -2.417397955500E+00  1.655817000000E+00
    2     6 C     4.989117424407E+00 -3.806608953000E+00  1.655817000000E+00
    3     6 C     8.020613433678E-01  6.224006908500E+00  1.655817000000E+00
    4     6 C     4.989117424407E+00  3.806608953000E+00 -1.655817000000E+00
    5     6 C    -5.791178767775E+00  2.417397955500E+00 -1.655817000000E+00
    6     6 C     8.020613433678E-01 -6.224006908500E+00 -1.655817000000E+00
    7     6 C     8.020613433678E-01 -6.224006908500E+00  1.655817000000E+00
    8     6 C    -5.791178767775E+00  2.417397955500E+00  1.655817000000E+00
    9     6 C     4.989117424407E+00  3.806608953000E+00  1.655817000000E+00
   10     6 C    -5.791178767775E+00 -2.417397955500E+00 -1.655817000000E+00
   11     6 C     8.020613433678E-01  6.224006908500E+00 -1.655817000000E+00
   12     6 C     4.989117424407E+00 -3.806608953000E+00 -1.655817000000E+00
   13     6 C    -5.106178502589E+00  3.610834551000E+00  1.655817000000E+00
   14     6 C    -5.739851987341E-01 -6.227497575000E+00  1.655817000000E+00
   15     6 C     5.680163701323E+00  2.616663024000E+00  1.655817000000E+00
   16     6 C    -5.739851987341E-01  6.227497575000E+00 -1.655817000000E+00
   17     6 C    -5.106178502589E+00 -3.610834551000E+00 -1.655817000000E+00
   18     6 C     5.680163701323E+00 -2.616663024000E+00 -1.655817000000E+00
   19     6 C     5.680163701323E+00 -2.616663024000E+00  1.655817000000E+00
   20     6 C    -5.106178502589E+00 -3.610834551000E+00  1.655817000000E+00
   21     6 C    -5.739851987341E-01  6.227497575000E+00  1.655817000000E+00
   22     6 C    -5.106178502589E+00  3.610834551000E+00 -1.655817000000E+00
   23     6 C     5.680163701323E+00  2.616663024000E+00 -1.655817000000E+00
   24     6 C    -5.739851987341E-01 -6.227497575000E+00 -1.655817000000E+00
   25     1 H     1.357522591269E+00  5.297866243500E+00  1.655817000000E+00
   26     1 H    -5.266848048357E+00 -1.473284071500E+00  1.655817000000E+00
   27     1 H     3.909325457089E+00 -3.824582172000E+00  1.655817000000E+00
   28     1 H    -5.266848048357E+00  1.473284071500E+00 -1.655817000000E+00
   29     1 H     1.357522591269E+00 -5.297866243500E+00 -1.655817000000E+00
   30     1 H     3.909325457089E+00  3.824582172000E+00 -1.655817000000E+00
   31     1 H     3.909325457089E+00  3.824582172000E+00  1.655817000000E+00
   32     1 H     1.357522591269E+00 -5.297866243500E+00  1.655817000000E+00
   33     1 H    -5.266848048357E+00  1.473284071500E+00  1.655817000000E+00
   34     1 H     1.357522591269E+00  5.297866243500E+00 -1.655817000000E+00
   35     1 H     3.909325457089E+00 -3.824582172000E+00 -1.655817000000E+00
   36     1 H    -5.266848048357E+00 -1.473284071500E+00 -1.655817000000E+00
   37     1 H    -4.023299210132E+00 -3.612171402000E+00  1.655817000000E+00
   38     1 H     5.139881802022E+00 -1.678193622000E+00  1.655817000000E+00
   39     1 H    -1.116582591890E+00  5.290365024000E+00  1.655817000000E+00
   40     1 H     5.139881802022E+00  1.678193622000E+00 -1.655817000000E+00
   41     1 H    -4.023299210132E+00  3.612171402000E+00 -1.655817000000E+00
   42     1 H    -1.116582591890E+00 -5.290365024000E+00 -1.655817000000E+00
   43     1 H    -1.116582591890E+00 -5.290365024000E+00  1.655817000000E+00
   44     1 H    -4.023299210132E+00  3.612171402000E+00  1.655817000000E+00
   45     1 H     5.139881802022E+00  1.678193622000E+00  1.655817000000E+00
   46     1 H    -4.023299210132E+00 -3.612171402000E+00 -1.655817000000E+00
   47     1 H    -1.116582591890E+00  5.290365024000E+00 -1.655817000000E+00
   48     1 H     5.139881802022E+00 -1.678193622000E+00 -1.655817000000E+00
   49     6 C    -7.919889451023E+00 -1.136249080500E+00  1.655817000000E+00
   50     6 C    -7.919889451023E+00  1.136249080500E+00  1.655817000000E+00
   51     6 C     2.975924156772E+00 -7.426950000000E+00  1.655817000000E+00
   52     6 C    -7.919889451023E+00 -1.136249080500E+00 -1.655817000000E+00
   53     6 C    -7.919889451023E+00  1.136249080500E+00 -1.655817000000E+00
   54     6 C     2.975924156772E+00 -7.426950000000E+00 -1.655817000000E+00
   55     6 C    -7.184462875235E+00 -2.410045275000E+00  1.655817000000E+00
   56     6 C    -7.184462875235E+00  2.410045275000E+00  1.655817000000E+00
   57     6 C     1.505071005197E+00 -7.426950000000E+00  1.655817000000E+00
   58     6 C    -7.184462875235E+00 -2.410045275000E+00 -1.655817000000E+00
   59     6 C    -7.184462875235E+00  2.410045275000E+00 -1.655817000000E+00
   60     6 C     1.505071005197E+00 -7.426950000000E+00 -1.655817000000E+00
   61     5 B    -5.030924952329E+00 -6.140082373500E+00  1.655817000000E+00
   62     5 B    -5.030924952329E+00  6.140082373500E+00  1.655817000000E+00
   63     5 B    -2.802004840616E+00 -7.426950000000E+00  1.655817000000E+00
   64     5 B    -5.030924952329E+00 -6.140082373500E+00 -1.655817000000E+00
   65     5 B    -5.030924952329E+00  6.140082373500E+00 -1.655817000000E+00
   66     5 B    -2.802004840616E+00 -7.426950000000E+00 -1.655817000000E+00
   67     7 N     3.606896232027E+00 -6.247327531500E+00  1.655817000000E+00
   68     7 N     3.606896232027E+00  6.247327531500E+00  1.655817000000E+00
   69     7 N    -7.213792464055E+00  0.000000000000E+00  1.655817000000E+00
   70     7 N     3.606896232027E+00 -6.247327531500E+00 -1.655817000000E+00
   71     7 N     3.606896232027E+00  6.247327531500E+00 -1.655817000000E+00
   72     7 N    -7.213792464055E+00  0.000000000000E+00 -1.655817000000E+00
   73     6 C    -5.788477358278E+00 -4.827963117000E+00  1.655817000000E+00
   74     6 C    -5.788477358278E+00  4.827963117000E+00  1.655817000000E+00
   75     6 C    -1.286900028717E+00 -7.426950000000E+00  1.655817000000E+00
   76     6 C    -5.788477358278E+00 -4.827963117000E+00 -1.655817000000E+00
   77     6 C    -5.788477358278E+00  4.827963117000E+00 -1.655817000000E+00
   78     6 C    -1.286900028717E+00 -7.426950000000E+00 -1.655817000000E+00
   79     8 O    -3.592231437618E+00  6.221927362500E+00  1.655817000000E+00
   80     8 O    -3.592231437618E+00 -6.221927362500E+00  1.655817000000E+00
   81     8 O     7.184462875235E+00  9.400075532184E-16  1.655817000000E+00
   82     8 O    -3.592231437618E+00  6.221927362500E+00 -1.655817000000E+00
   83     8 O    -3.592231437618E+00 -6.221927362500E+00 -1.655817000000E+00
   84     8 O     7.184462875235E+00 -9.400075532184E-16 -1.655817000000E+00
   85    24 CR   -4.287951581758E+00  7.426950000000E+00  0.000000000000E+00

 *******************************************************************************
 LOCAL ATOMIC FUNCTIONS BASIS SET
 *******************************************************************************
   ATOM   X(AU)   Y(AU)   Z(AU)  N. TYPE  EXPONENT  S COEF   P COEF   D/F/G COEF
 *******************************************************************************
   1 C  -10.944  -4.568   3.129
                                  1 S  
                                         1.358E+04 2.225E-04 0.000E+00 0.000E+00
                                         2.035E+03 1.723E-03 0.000E+00 0.000E+00
                                         4.632E+02 8.926E-03 0.000E+00 0.000E+00
                                         1.312E+02 3.573E-02 0.000E+00 0.000E+00
                                         4.285E+01 1.108E-01 0.000E+00 0.000E+00
                                         1.558E+01 2.430E-01 0.000E+00 0.000E+00
                                  2 S  
                                         6.207E+00 4.144E-01 0.000E+00 0.000E+00
                                         2.576E+00 2.374E-01 0.000E+00 0.000E+00
                                  3 S  
                                         4.941E-01 1.000E+00 0.000E+00 0.000E+00
                                  4 S  
                                         1.644E-01 1.000E+00 0.000E+00 0.000E+00
                           5-     7 P  
                                         3.470E+01 0.000E+00 5.333E-03 0.000E+00
                                         7.958E+00 0.000E+00 3.586E-02 0.000E+00
                                         2.378E+00 0.000E+00 1.422E-01 0.000E+00
                                         8.143E-01 0.000E+00 3.427E-01 0.000E+00
                           8-    10 P  
                                         5.662E-01 0.000E+00 1.000E+00 0.000E+00
                          11-    13 P  
                                         2.674E-01 0.000E+00 1.000E+00 0.000E+00
                          14-    18 D  
                                         8.792E-01 0.000E+00 0.000E+00 1.000E+00
   2 C    9.428  -7.193   3.129
   3 C    1.516  11.762   3.129
   4 C    9.428   7.193  -3.129
   5 C  -10.944   4.568  -3.129
   6 C    1.516 -11.762  -3.129
   7 C    1.516 -11.762   3.129
   8 C  -10.944   4.568   3.129
   9 C    9.428   7.193   3.129
  10 C  -10.944  -4.568  -3.129
  11 C    1.516  11.762  -3.129
  12 C    9.428  -7.193  -3.129
  13 C   -9.649   6.823   3.129
  14 C   -1.085 -11.768   3.129
  15 C   10.734   4.945   3.129
  16 C   -1.085  11.768  -3.129
  17 C   -9.649  -6.823  -3.129
  18 C   10.734  -4.945  -3.129
  19 C   10.734  -4.945   3.129
  20 C   -9.649  -6.823   3.129
  21 C   -1.085  11.768   3.129
  22 C   -9.649   6.823  -3.129
  23 C   10.734   4.945  -3.129
  24 C   -1.085 -11.768  -3.129
  25 H    2.565  10.012   3.129
                                433 S  
                                         3.406E+01 6.025E-03 0.000E+00 0.000E+00
                                         5.124E+00 4.502E-02 0.000E+00 0.000E+00
                                         1.165E+00 2.019E-01 0.000E+00 0.000E+00
                                434 S  
                                         4.157E-01 1.000E+00 0.000E+00 0.000E+00
                                435 S  
                                         1.795E-01 1.000E+00 0.000E+00 0.000E+00
                         436-   438 P  
                                         8.000E-01 0.000E+00 1.000E+00 0.000E+00
  26 H   -9.953  -2.784   3.129
  27 H    7.388  -7.227   3.129
  28 H   -9.953   2.784  -3.129
  29 H    2.565 -10.012  -3.129
  30 H    7.388   7.227  -3.129
  31 H    7.388   7.227   3.129
  32 H    2.565 -10.012   3.129
  33 H   -9.953   2.784   3.129
  34 H    2.565  10.012  -3.129
  35 H    7.388  -7.227  -3.129
  36 H   -9.953  -2.784  -3.129
  37 H   -7.603  -6.826   3.129
  38 H    9.713  -3.171   3.129
  39 H   -2.110   9.997   3.129
  40 H    9.713   3.171  -3.129
  41 H   -7.603   6.826  -3.129
  42 H   -2.110  -9.997  -3.129
  43 H   -2.110  -9.997   3.129
  44 H   -7.603   6.826   3.129
  45 H    9.713   3.171   3.129
  46 H   -7.603  -6.826  -3.129
  47 H   -2.110   9.997  -3.129
  48 H    9.713  -3.171  -3.129
  49 C  -14.966  -2.147   3.129
  50 C  -14.966   2.147   3.129
  51 C    5.624 -14.035   3.129
  52 C  -14.966  -2.147  -3.129
  53 C  -14.966   2.147  -3.129
  54 C    5.624 -14.035  -3.129
  55 C  -13.577  -4.554   3.129
  56 C  -13.577   4.554   3.129
  57 C    2.844 -14.035   3.129
  58 C  -13.577  -4.554  -3.129
  59 C  -13.577   4.554  -3.129
  60 C    2.844 -14.035  -3.129
  61 B   -9.507 -11.603   3.129
                                793 S  
                                         8.565E+03 2.284E-04 0.000E+00 0.000E+00
                                         1.284E+03 1.768E-03 0.000E+00 0.000E+00
                                         2.923E+02 9.141E-03 0.000E+00 0.000E+00
                                         8.278E+01 3.634E-02 0.000E+00 0.000E+00
                                         2.702E+01 1.106E-01 0.000E+00 0.000E+00
                                         9.815E+00 2.337E-01 0.000E+00 0.000E+00
                                794 S  
                                         3.932E+00 4.182E-01 0.000E+00 0.000E+00
                                         1.660E+00 2.233E-01 0.000E+00 0.000E+00
                                795 S  
                                         5.332E-01 1.000E+00 0.000E+00 0.000E+00
                                796 S  
                                         2.666E-01 1.000E+00 0.000E+00 0.000E+00
                         797-   799 P  
                                         2.245E+01 0.000E+00 5.027E-03 0.000E+00
                                         5.105E+00 0.000E+00 3.280E-02 0.000E+00
                                         1.499E+00 0.000E+00 1.315E-01 0.000E+00
                                         5.093E-01 0.000E+00 3.320E-01 0.000E+00
                         800-   802 P  
                                         5.386E-01 0.000E+00 1.000E+00 0.000E+00
                         803-   805 P  
                                         2.693E-01 0.000E+00 1.000E+00 0.000E+00
                         806-   810 D  
                                         7.501E-01 0.000E+00 0.000E+00 1.000E+00
  62 B   -9.507  11.603   3.129
  63 B   -5.295 -14.035   3.129
  64 B   -9.507 -11.603  -3.129
  65 B   -9.507  11.603  -3.129
  66 B   -5.295 -14.035  -3.129
  67 N    6.816 -11.806   3.129
                                901 S  
                                         1.973E+04 2.189E-04 0.000E+00 0.000E+00
                                         2.958E+03 1.696E-03 0.000E+00 0.000E+00
                                         6.732E+02 8.795E-03 0.000E+00 0.000E+00
                                         1.907E+02 3.536E-02 0.000E+00 0.000E+00
                                         6.230E+01 1.110E-01 0.000E+00 0.000E+00
                                         2.265E+01 2.498E-01 0.000E+00 0.000E+00
                                902 S  
                                         8.979E+00 4.062E-01 0.000E+00 0.000E+00
                                         3.686E+00 2.434E-01 0.000E+00 0.000E+00
                                903 S  
                                         7.865E-01 1.000E+00 0.000E+00 0.000E+00
                                904 S  
                                         2.678E-01 1.000E+00 0.000E+00 0.000E+00
                         905-   907 P  
                                         4.920E+01 0.000E+00 5.555E-03 0.000E+00
                                         1.135E+01 0.000E+00 3.805E-02 0.000E+00
                                         3.427E+00 0.000E+00 1.495E-01 0.000E+00
                                         1.179E+00 0.000E+00 3.495E-01 0.000E+00
                         908-   910 P  
                                         3.780E-01 0.000E+00 1.000E+00 0.000E+00
                         911-   913 P  
                                         1.474E-01 0.000E+00 1.000E+00 0.000E+00
                         914-   918 D  
                                         3.612E-01 0.000E+00 0.000E+00 1.000E+00
  68 N    6.816  11.806   3.129
  69 N  -13.632   0.000   3.129
  70 N    6.816 -11.806  -3.129
  71 N    6.816  11.806  -3.129
  72 N  -13.632   0.000  -3.129
  73 C  -10.939  -9.124   3.129
  74 C  -10.939   9.124   3.129
  75 C   -2.432 -14.035   3.129
  76 C  -10.939  -9.124  -3.129
  77 C  -10.939   9.124  -3.129
  78 C   -2.432 -14.035  -3.129
  79 O   -6.788  11.758   3.129
                               1117 S  
                                         2.703E+04 2.173E-04 0.000E+00 0.000E+00
                                         4.052E+03 1.684E-03 0.000E+00 0.000E+00
                                         9.223E+02 8.740E-03 0.000E+00 0.000E+00
                                         2.612E+02 3.524E-02 0.000E+00 0.000E+00
                                         8.535E+01 1.115E-01 0.000E+00 0.000E+00
                                         3.104E+01 2.559E-01 0.000E+00 0.000E+00
                               1118 S  
                                         1.226E+01 3.977E-01 0.000E+00 0.000E+00
                                         4.999E+00 2.463E-01 0.000E+00 0.000E+00
                               1119 S  
                                         1.099E+00 1.000E+00 0.000E+00 0.000E+00
                               1120 S  
                                         3.566E-01 1.000E+00 0.000E+00 0.000E+00
                        1121-  1123 P  
                                         6.327E+01 0.000E+00 6.069E-03 0.000E+00
                                         1.463E+01 0.000E+00 4.191E-02 0.000E+00
                                         4.450E+00 0.000E+00 1.615E-01 0.000E+00
                                         1.528E+00 0.000E+00 3.571E-01 0.000E+00
                        1124-  1126 P  
                                         5.490E-01 0.000E+00 1.000E+00 0.000E+00
                        1127-  1129 P  
                                         1.859E-01 0.000E+00 1.000E+00 0.000E+00
                        1130-  1134 D  
                                         2.535E-01 0.000E+00 0.000E+00 1.000E+00
  80 O   -6.788 -11.758   3.129
  81 O   13.577   0.000   3.129
  82 O   -6.788  11.758  -3.129
  83 O   -6.788 -11.758  -3.129
  84 O   13.577  -0.000  -3.129
  85 CR  -8.103  14.035   0.000
                               1225 S  
                                         2.545E+05 2.339E-04 0.000E+00 0.000E+00
                                         3.813E+04 1.814E-03 0.000E+00 0.000E+00
                                         8.675E+03 9.436E-03 0.000E+00 0.000E+00
                                         2.455E+03 3.834E-02 0.000E+00 0.000E+00
                                         7.992E+02 1.246E-01 0.000E+00 0.000E+00
                                         2.869E+02 2.949E-01 0.000E+00 0.000E+00
                                         1.113E+02 4.185E-01 0.000E+00 0.000E+00
                                         4.386E+01 2.163E-01 0.000E+00 0.000E+00
                               1226 S  
                                         2.793E+02-2.345E-02 0.000E+00 0.000E+00
                                         8.627E+01-1.108E-01 0.000E+00 0.000E+00
                                         1.356E+01 5.303E-01 0.000E+00 0.000E+00
                                         5.698E+00 5.160E-01 0.000E+00 0.000E+00
                               1227 S  
                                         8.564E+00-3.811E-01 0.000E+00 0.000E+00
                                         1.399E+00 1.199E+00 0.000E+00 0.000E+00
                               1228 S  
                                         1.514E+00 1.000E+00 0.000E+00 0.000E+00
                               1229 S  
                                         5.047E-01 1.000E+00 0.000E+00 0.000E+00
                               1230 S  
                                         1.506E-01 1.000E+00 0.000E+00 0.000E+00
                        1231-  1233 P  
                                         1.306E+03 0.000E+00 2.428E-03 0.000E+00
                                         3.093E+02 0.000E+00 1.954E-02 0.000E+00
                                         9.900E+01 0.000E+00 9.065E-02 0.000E+00
                                         3.676E+01 0.000E+00 2.570E-01 0.000E+00
                                         1.457E+01 0.000E+00 4.094E-01 0.000E+00
                                         5.874E+00 0.000E+00 2.373E-01 0.000E+00
                        1234-  1236 P  
                                         2.289E+01 0.000E+00-2.817E-02 0.000E+00
                                         3.086E+00 0.000E+00 5.603E-01 0.000E+00
                                         1.213E+00 0.000E+00 9.812E-01 0.000E+00
                        1237-  1239 P  
                                         4.593E-01 0.000E+00 1.000E+00 0.000E+00
                        1240-  1242 P  
                                         2.297E-01 0.000E+00 1.000E+00 0.000E+00
                        1243-  1247 D  
                                         4.372E+01 0.000E+00 0.000E+00 1.362E-02
                                         1.239E+01 0.000E+00 0.000E+00 7.894E-02
                                         4.264E+00 0.000E+00 0.000E+00 2.383E-01
                                         1.553E+00 0.000E+00 0.000E+00 3.953E-01
                        1248-  1252 D  
                                         1.129E+00 0.000E+00 0.000E+00 1.000E+00
                        1253-  1257 D  
                                         5.173E-01 0.000E+00 0.000E+00 1.000E+00
                        1258-  1264 F  
                                         1.147E+00 0.000E+00 0.000E+00 1.000E+00
 INFORMATION **** SET_MPP **** PCRYSTAL CALCULATION
 INFORMATION **** READM2 **** NEW DEFAULT: FOCK/KS MATRIX MIXING SET TO 30 %
 INFORMATION **** READM2 **** NEW DEFAULT: FULL DIRECT SCF MODE
 INFORMATION **** READM2 **** NEW DEFAULT: COULOMB BIPOLAR BUFFER SET TO 32 Mb
 INFORMATION **** READM2 **** NEW DEFAULT: EXCHANGE BIPOLAR BUFFER SET TO 32 Mb

 *******************************************************************************
 NEW DEFAULT: DFT INTEGRATION GRID INCREASED TO XLGRID
 NEW DEFAULT: DIIS ACCELERATOR ACTIVE
 USE KEYWORD NODIIS TO TURN IT OFF
 *******************************************************************************

 WARNING **** RDDFTP **** HSE06-HJS ACTIVE
 RANGE SEPARATION - OMEGA:   0.110000000000000     
 INFORMATION **** DFTD3_INPUT **** PERFORM LATEST DISPERSION CORRECTION DFT-D3(BJ) WITH AUTOMATIC PARAMETER SETUP
 PLEASE CITE:
 (1) DFT-D3 Reference
  S. Grimme, J. Antony, S. Ehrlich, and H. Krieg, J. Chem. Phys. 132 (2010), 154104
 (2) BJ-Damping Reference
  S. Grimme, S. Ehrlich, and L. Goerigk, J. Comput. Chem. 32 (2011), 1456-1465
 (3) General DFT-D Review
  S. Grimme, A. Hansen, J. G. Brandenburg, and C. Bannwarth,
  Chem. Rev. 116 (2016), 5105-5154

 INFORMATION **** TOLINTEG **** COULOMB AND EXCHANGE SERIES TOLERANCES MODIFIED
 INFORMATION **** TOLDEE **** SCF TOL ON TOTAL ENERGY SET TO           7
 INFORMATION **** READM2 **** FULL DIRECT SCF (MONO AND BIEL INT) SELECTED
 INFORMATION **** BIPOSIZE **** COULOMB BIPOLAR BUFFER SET TO    10000000
 INFORMATION **** EXCHSIZE **** EXCHANGE BIPOLAR BUFFER SIZE SET TO    10000000
 SSSSSSSSSSSSSSSSSSSSSSSSSSSSSSSSSSSSSSSSSSSSSSSSSSSSSSSSSSSSSSSSSSSSSSSSSSSSSS
 ATOMIC SPINS SET TO (ATOM, AT. N., SPIN)
   1   6 0   2   6 0   3   6 0   4   6 0   5   6 0   6   6 0   7   6 0   8   6 0
   9   6 0  10   6 0  11   6 0  12   6 0  13   6 0  14   6 0  15   6 0  16   6 0
  17   6 0  18   6 0  19   6 0  20   6 0  21   6 0  22   6 0  23   6 0  24   6 0
  25   1 0  26   1 0  27   1 0  28   1 0  29   1 0  30   1 0  31   1 0  32   1 0
  33   1 0  34   1 0  35   1 0  36   1 0  37   1 0  38   1 0  39   1 0  40   1 0
  41   1 0  42   1 0  43   1 0  44   1 0  45   1 0  46   1 0  47   1 0  48   1 0
  49   6 0  50   6 0  51   6 0  52   6 0  53   6 0  54   6 0  55   6 0  56   6 0
  57   6 0  58   6 0  59   6 0  60   6 0  61   5 0  62   5 0  63   5 0  64   5 0
  65   5 0  66   5 0  67   7 0  68   7 0  69   7 0  70   7 0  71   7 0  72   7 0
  73   6 0  74   6 0  75   6 0  76   6 0  77   6 0  78   6 0  79   8 0  80   8 0
  81   8 0  82   8 0  83   8 0  84   8 0  85  24 1
 INFORMATION **** SPINLOCK **** LOCK IN A GIVEN SPIN STATE
 ALPHA-BETA ELECTRONS LOCKED TO   2 FOR   4 SCF CYCLES
 INFORMATION **** MAXCYCLE **** MAX NUMBER OF SCF CYCLES SET TO         800
 INFORMATION **** PPAN ****  MULLIKEN POPULATION ANALYSIS AT THE END OF SCF
 *******************************************************************************
 N. OF ATOMS PER CELL        85  COULOMB OVERLAP TOL         (T1) 10**   -7
 NUMBER OF SHELLS           590  COULOMB PENETRATION TOL     (T2) 10**   -7
 NUMBER OF AO              1264  EXCHANGE OVERLAP TOL        (T3) 10**   -7
 N. OF ELECTRONS PER CELL   420  EXCHANGE PSEUDO OVP (F(G))  (T4) 10**   -7
 CORE ELECTRONS PER CELL    138  EXCHANGE PSEUDO OVP (P(G))  (T5) 10**  -14
 N. OF SYMMETRY OPERATORS    12  POLE ORDER IN MONO ZONE                  4
 *******************************************************************************
 TYPE OF CALCULATION :  UNRESTRICTED OPEN SHELL
 KOHN-SHAM HAMILTONIAN

 (EXCHANGE)[CORRELATION] FUNCTIONAL:(HSE06 SR/GGA)[PERDEW-BURKE-ERNZERHOF]

 RANGE-SEPARATED HYBRID FUNCTIONAL 
 OMEGA (SHORT-RANGE)[LONG-RANGE]:(    0.1100)[    0.0000]

 HYBRID EXCHANGE - PERCENTAGE OF FOCK EXCHANGE    25.0000

 SPIN POLARIZED DFT SELECTED
 SPIN POLARIZATION - ALPHA-BETA =  2 FOR   4 CYCLES

 CAPPA:IS1  4;IS2  4;IS3  1; K PTS MONK NET   4; SYMMOPS:K SPACE  24;G SPACE  12

 *******************************************************************************
 MAX NUMBER OF SCF CYCLES     800  CONVERGENCE ON DELTAP        10**-17
 WEIGHT OF F(I) IN F(I+1)      90% CONVERGENCE ON ENERGY        10**- 7
 SPIN POLARIZATION - ALPHA-BETA =  2 FOR   4 CYCLES
 SHRINK. FACT.(MONKH.)    4  4  1  NUMBER OF K POINTS IN THE IBZ      4
 SHRINKING FACTOR(GILAT NET)    8  NUMBER OF K POINTS(GILAT NET)     10
 *******************************************************************************
 *** K POINTS COORDINATES (OBLIQUE COORDINATES IN UNITS OF IS =  4)
   1-R(  0  0  0)   2-C(  1  0  0)   3-R(  2  0  0)   4-C(  1  1  0)

 DIRECT LATTICE VECTORS COMPON. (A.U.)     RECIP. LATTICE VECTORS COMPON. (A.U.) 
        X            Y            Z              X            Y            Z
   24.3091625  -14.0349015    0.0000000      0.2584698    0.0000000    0.0000000
    0.0000000   28.0698030    0.0000000      0.1292349    0.2238414    0.0000000
    0.0000000    0.0000000  944.8630670      0.0000000    0.0000000    0.0066498

 DISK SPACE FOR EIGENVECTORS (FTN 10)     9586176 REALS

 SYMMETRY ADAPTION OF THE BLOCH FUNCTIONS ENABLED
 TTTTTTTTTTTTTTTTTTTTTTTTTTTTTT gordsh1     TELAPSE        1.06 TCPU        0.19

 MATRIX SIZE: P(G)  935512, F(G)  231802, P(G) IRR   45580, F(G) IRR   24072
 MAX G-VECTOR INDEX FOR 1- AND 2-ELECTRON INTEGRALS  13

 TTTTTTTTTTTTTTTTTTTTTTTTTTTTTT INPUT       TELAPSE        1.32 TCPU        0.45

 NEIGHBORS OF THE NON-EQUIVALENT ATOMS

 N = NUMBER OF NEIGHBORS AT DISTANCE R
    ATOM  N     R/ANG      R/AU   NEIGHBORS (ATOM LABELS AND CELL INDICES)
   1 C    1     1.0799     2.0408   26 H    0 0 0
   1 C    1     1.3761     2.6004   20 C    0 0 0
   1 C    1     1.3933     2.6330   55 C    0 0 0
   1 C    1     2.1337     4.0322   37 H    0 0 0
   1 C    1     2.4059     4.5465    9 C   -1-1 0
   1 C    1     2.4106     4.5553   73 C    0 0 0

  13 C    1     1.0829     2.0463   44 H    0 0 0
  13 C    1     1.3761     2.6004    8 C    0 0 0
  13 C    1     1.3953     2.6368   74 C    0 0 0
  13 C    1     2.1436     4.0508   33 H    0 0 0
  13 C    1     2.3989     4.5333   19 C   -1 0 0
  13 C    1     2.4002     4.5358   56 C    0 0 0

  25 H    1     1.0799     2.0408    3 C    0 0 0
  25 H    1     2.1342     4.0330   57 C    0 1 0
  25 H    1     2.1436     4.0508   21 C    0 0 0
  25 H    1     2.4415     4.6139   68 N    0 0 0
  25 H    1     2.4741     4.6754   39 H    0 0 0
  25 H    1     2.6744     5.0538   51 C    0 1 0

  37 H    1     1.0829     2.0463   20 C    0 0 0
  37 H    1     2.1337     4.0322    1 C    0 0 0
  37 H    1     2.1434     4.0504   73 C    0 0 0
  37 H    1     2.4741     4.6754   26 H    0 0 0
  37 H    1     2.6451     4.9985   80 O    0 0 0
  37 H    1     2.7213     5.1426   61 B    0 0 0

  49 C    2     1.3378     2.5280   68 N   -1-1 0   69 N    0 0 0
  49 C    1     1.4709     2.7795   55 C    0 0 0
  49 C    2     2.2725     4.2944   50 C    0 0 0   51 C   -1 0 0
  49 C    2     2.4845     4.6950    1 C    0 0 0    9 C   -1-1 0
  49 C    1     2.6741     5.0534   67 N   -1 0 0
  49 C    2     2.6744     5.0538   26 H    0 0 0   31 H   -1-1 0

  55 C    2     1.3933     2.6330    1 C    0 0 0    9 C   -1-1 0
  55 C    1     1.4709     2.7795   49 C    0 0 0
  55 C    2     2.1342     4.0330   26 H    0 0 0   31 H   -1-1 0
  55 C    2     2.4002     4.5358   15 C   -1-1 0   20 C    0 0 0
  55 C    2     2.4102     4.5547   68 N   -1-1 0   69 N    0 0 0
  55 C    1     2.7920     5.2761   73 C    0 0 0

  61 B    2     1.4410     2.7231   80 O    0 0 0   81 O   -1-1 0
  61 B    1     1.5151     2.8631   73 C    0 0 0
  61 B    1     2.2248     4.2043   85 CR   0-1 0
  61 B    2     2.5304     4.7817   15 C   -1-1 0   20 C    0 0 0
  61 B    2     2.5737     4.8637   62 B    0-1 0   63 B    0 0 0
  61 B    2     2.7213     5.1426   37 H    0 0 0   45 H   -1-1 0

  67 N    2     1.3378     2.5280   50 C    1 0 0   51 C    0 0 0
  67 N    2     2.3592     4.4583   68 N    0-1 0   69 N    1 0 0
  67 N    2     2.4102     4.5547   56 C    1 0 0   57 C    0 0 0
  67 N    2     2.4415     4.6139   27 H    0 0 0   32 H    0 0 0
  67 N    1     2.6741     5.0534   49 C    1 0 0
  67 N    2     2.8049     5.3006    2 C    0 0 0    7 C    0 0 0

  73 C    2     1.3953     2.6368   15 C   -1-1 0   20 C    0 0 0
  73 C    1     1.5151     2.8631   61 B    0 0 0
  73 C    2     2.1434     4.0504   37 H    0 0 0   45 H   -1-1 0
  73 C    2     2.4106     4.5553    1 C    0 0 0    9 C   -1-1 0
  73 C    2     2.6013     4.9157   80 O    0 0 0   81 O   -1-1 0
  73 C    1     2.7920     5.2761   55 C    0 0 0

  79 O    2     1.4410     2.7231   62 B    0 0 0   63 B    0 1 0
  79 O    1     2.1628     4.0872   85 CR   0 0 0
  79 O    2     2.4100     4.5543   80 O    0 1 0   81 O   -1 0 0
  79 O    2     2.6013     4.9157   74 C    0 0 0   75 C    0 1 0
  79 O    2     2.6451     4.9985   39 H    0 0 0   44 H    0 0 0
  79 O    1     2.8774     5.4375   61 B    0 1 0

  85 CR   6     2.1628     4.0872   79 O    0 0 0   80 O    0 1 0   81 O   -1 0 0
                                    82 O    0 0 0   83 O    0 1 0   84 O   -1 0 0
  85 CR   6     2.2248     4.2043   61 B    0 1 0   62 B    0 0 0   63 B    0 1 0
                                    64 B    0 1 0   65 B    0 0 0   66 B    0 1 0
  85 CR   6     3.4275     6.4771   73 C    0 1 0   74 C    0 0 0   75 C    0 1 0
                                    76 C    0 1 0   77 C    0 0 0   78 C    0 1 0
  85 CR  12     4.1671     7.8746   37 H    0 1 0   38 H   -1 0 0   39 H    0 0 0
                                    40 H   -1 0 0   41 H    0 0 0   42 H    0 1 0
                                    43 H    0 1 0   44 H    0 0 0   45 H   -1 0 0
                                    46 H    0 1 0   47 H    0 0 0   48 H   -1 0 0
  85 CR  12     4.2396     8.0116   13 C    0 0 0   14 C    0 1 0   15 C   -1 0 0
                                    16 C    0 0 0   17 C    0 1 0   18 C   -1 0 0
                                    19 C   -1 0 0   20 C    0 1 0   21 C    0 0 0
                                    22 C    0 0 0   23 C   -1 0 0   24 C    0 1 0
  85 CR  12     5.4861    10.3672    1 C    0 1 0    2 C   -1 0 0    3 C    0 0 0
                                     4 C   -1 0 0    5 C    0 0 0    6 C    0 1 0
                                     7 C    0 1 0    8 C    0 0 0    9 C   -1 0 0
                                    10 C    0 1 0   11 C    0 0 0   12 C   -1 0 0


 SYMMETRY ALLOWED ELASTIC DISTORTION 1
  0.7071068  0.0000000
  0.0000000  0.7071068

 SYMMETRY ALLOWED INTERNAL DEGREE(S) OF FREEDOM:  24
 TTTTTTTTTTTTTTTTTTTTTTTTTTTTTT SYMM        TELAPSE        1.56 TCPU        0.68
 TTTTTTTTTTTTTTTTTTTTTTTTTTTTTT INT_SCREEN  TELAPSE        1.57 TCPU        0.69

 *******************************************************************************
 *                             OPTIMIZATION STARTS                             *
 *******************************************************************************
 RECLASIFICATION OF INDICES FOR INTEGRAL CALC ACCORDING TO DIFFERENT CRITERIA:
           FIXDELTE                  FIXDELTX              FIXDELTN
           1.0000000               0.80000000                 25
 *******************************************************************************

 *******************************************************************************
 COORDINATE AND CELL OPTIMIZATION - POINT    1

 DFT PARAMETERS

     ATOM       ELECTRONS   NET CHARGE   R(ANGSTROM)
   1   6  C       6.0000      0.0000     0.77000000
  25   1  H       1.0000      0.0000     1.11000000
  61   5  B       5.0000      0.0000     0.89000000
  67   7  N       7.0000      0.0000     0.74000000
  79   8  O       8.0000      0.0000     0.74000000
  85  24  CR     24.0000      0.0000     1.29000000

 SIZE OF GRID=     228625
 TTTTTTTTTTTTTTTTTTTTTTTTTTTTTT MAKE_GRID2  TELAPSE        2.01 TCPU        1.12
 BECKE WEIGHT FUNCTION
 RADSAFE =     2.00
 TOLERANCES - DENSITY:10**- 6; POTENTIAL:10**- 9; GRID WGT:10**-14

 RADIAL INTEGRATION  - INTERVALS (POINTS,UPPER LIMIT):            1( 75,  4.0*R)

 ANGULAR INTEGRATION - INTERVALS (ACCURACY LEVEL [N. POINTS] UPPER LIMIT):
  1(  4[  86]   0.2)  2(  8[ 194]   0.5)  3( 12[ 350]   0.9)  4( 16[ 974]   3.5)
  5( 12[ 350]9999.0)
 TTTTTTTTTTTTTTTTTTTTTTTTTTTTTT INT_CALC    TELAPSE        2.03 TCPU        1.15

 *******************************************************************************
 SLAB HSE06-D3 2D-COF Cr1-Triazine Date 04.06.2020                               
 CRYSTAL - SCF - TYPE OF CALCULATION :  UNRESTRICTED OPEN SHELL
 *******************************************************************************

 CAPPA:IS1  4;IS2  4;IS3  1; K PTS MONK NET   4; SYMMOPS:K SPACE  24;G SPACE  12

 TTTTTTTTTTTTTTTTTTTTTTTTTTTTTT SDIK        TELAPSE        2.29 TCPU        1.40

 AAAAAAAAAAAAAAAAAAAAAAAAAAAAAAAAAAAAAAAAAAAAAAAAAAAAAAAAAAAAAAAAAAAAAAAAAAAAAAA
         ATOMIC WAVEFUNCTION(S)


 NUCLEAR CHARGE  6.0  SYMMETRY SPECIES            S    P
 N. ELECTRONS    6.0  NUMBER OF PRIMITIVE GTOS   10    6
                      NUMBER OF CONTRACTED GTOS   4    3
                      NUMBER OF CLOSED SHELLS     2    0
                      OPEN SHELL OCCUPATION       0    2

  ZNUC SCFIT  TOTAL HF ENERGY   KINETIC ENERGY   VIRIAL THEOREM ACCURACY
   6.0  10   -3.766702350E+01  3.783137943E+01 -1.995655566E+00  1.6E-06

 NUCLEAR CHARGE  1.0  SYMMETRY SPECIES            S
 N. ELECTRONS    1.0  NUMBER OF PRIMITIVE GTOS    5
                      NUMBER OF CONTRACTED GTOS   3
                      NUMBER OF CLOSED SHELLS     0
                      OPEN SHELL OCCUPATION       1

  ZNUC SCFIT  TOTAL HF ENERGY   KINETIC ENERGY   VIRIAL THEOREM ACCURACY
   1.0   1   -4.972863497E-01  5.223199932E-01 -1.952072209E+00  6.6E-16

 NUCLEAR CHARGE  5.0  SYMMETRY SPECIES            S    P
 N. ELECTRONS    5.0  NUMBER OF PRIMITIVE GTOS   10    6
                      NUMBER OF CONTRACTED GTOS   4    3
                      NUMBER OF CLOSED SHELLS     2    0
                      OPEN SHELL OCCUPATION       0    1

  ZNUC SCFIT  TOTAL HF ENERGY   KINETIC ENERGY   VIRIAL THEOREM ACCURACY
   5.0   8   -2.442909740E+01  2.502122548E+01 -1.976334969E+00  2.9E-06

 NUCLEAR CHARGE  7.0  SYMMETRY SPECIES            S    P
 N. ELECTRONS    7.0  NUMBER OF PRIMITIVE GTOS   10    6
                      NUMBER OF CONTRACTED GTOS   4    3
                      NUMBER OF CLOSED SHELLS     2    0
                      OPEN SHELL OCCUPATION       0    3

  ZNUC SCFIT  TOTAL HF ENERGY   KINETIC ENERGY   VIRIAL THEOREM ACCURACY
   7.0  11   -5.439370237E+01  5.446073139E+01 -1.998769223E+00  4.0E-06

 NUCLEAR CHARGE  8.0  SYMMETRY SPECIES            S    P
 N. ELECTRONS    8.0  NUMBER OF PRIMITIVE GTOS   10    6
                      NUMBER OF CONTRACTED GTOS   4    3
                      NUMBER OF CLOSED SHELLS     2    0
                      OPEN SHELL OCCUPATION       0    4

  ZNUC SCFIT  TOTAL HF ENERGY   KINETIC ENERGY   VIRIAL THEOREM ACCURACY
   8.0  13   -7.480300557E+01  7.484348361E+01 -1.999459164E+00  4.9E-06

 NUCLEAR CHARGE 24.0  SYMMETRY SPECIES            S    P    D
 N. ELECTRONS   24.0  NUMBER OF PRIMITIVE GTOS   17   11    6
                      NUMBER OF CONTRACTED GTOS   6    4    3
                      NUMBER OF CLOSED SHELLS     4    2    0
                      OPEN SHELL OCCUPATION       0    0    4

  ZNUC SCFIT  TOTAL HF ENERGY   KINETIC ENERGY   VIRIAL THEOREM ACCURACY
  24.0  19   -1.043095583E+03  1.044533361E+03 -1.998623521E+00  3.1E-06

 AAAAAAAAAAAAAAAAAAAAAAAAAAAAAAAAAAAAAAAAAAAAAAAAAAAAAAAAAAAAAAAAAAAAAAAAAAAAAAA

 CHARGE NORMALIZATION FACTOR   1.00000000
 TOTAL ATOMIC CHARGES:
   6.0000000   6.0000000   6.0000000   6.0000000   6.0000000   6.0000000
   6.0000000   6.0000000   6.0000000   6.0000000   6.0000000   6.0000000
   6.0000000   6.0000000   6.0000000   6.0000000   6.0000000   6.0000000
   6.0000000   6.0000000   6.0000000   6.0000000   6.0000000   6.0000000
   1.0000000   1.0000000   1.0000000   1.0000000   1.0000000   1.0000000
   1.0000000   1.0000000   1.0000000   1.0000000   1.0000000   1.0000000
   1.0000000   1.0000000   1.0000000   1.0000000   1.0000000   1.0000000
   1.0000000   1.0000000   1.0000000   1.0000000   1.0000000   1.0000000
   6.0000000   6.0000000   6.0000000   6.0000000   6.0000000   6.0000000
   6.0000000   6.0000000   6.0000000   6.0000000   6.0000000   6.0000000
   5.0000000   5.0000000   5.0000000   5.0000000   5.0000000   5.0000000
   7.0000000   7.0000000   7.0000000   7.0000000   7.0000000   7.0000000
   6.0000000   6.0000000   6.0000000   6.0000000   6.0000000   6.0000000
   8.0000000   8.0000000   8.0000000   8.0000000   8.0000000   8.0000000
  24.0000000
 SUMMED SPIN DENSITY           4.00000000
 TOTAL ATOMIC SPINS  :
   0.0000000   0.0000000   0.0000000   0.0000000   0.0000000   0.0000000
   0.0000000   0.0000000   0.0000000   0.0000000   0.0000000   0.0000000
   0.0000000   0.0000000   0.0000000   0.0000000   0.0000000   0.0000000
   0.0000000   0.0000000   0.0000000   0.0000000   0.0000000   0.0000000
   0.0000000   0.0000000   0.0000000   0.0000000   0.0000000   0.0000000
   0.0000000   0.0000000   0.0000000   0.0000000   0.0000000   0.0000000
   0.0000000   0.0000000   0.0000000   0.0000000   0.0000000   0.0000000
   0.0000000   0.0000000   0.0000000   0.0000000   0.0000000   0.0000000
   0.0000000   0.0000000   0.0000000   0.0000000   0.0000000   0.0000000
   0.0000000   0.0000000   0.0000000   0.0000000   0.0000000   0.0000000
   0.0000000   0.0000000   0.0000000   0.0000000   0.0000000   0.0000000
   0.0000000   0.0000000   0.0000000   0.0000000   0.0000000   0.0000000
   0.0000000   0.0000000   0.0000000   0.0000000   0.0000000   0.0000000
   0.0000000   0.0000000   0.0000000   0.0000000   0.0000000   0.0000000
   4.0000000
 TTTTTTTTTTTTTTTTTTTTTTTTTTTTTT MOQGAD      TELAPSE        2.33 TCPU        1.45
 TTTTTTTTTTTTTTTTTTTTTTTTTTTTTT SHELLXN     TELAPSE        9.35 TCPU        8.47
 TTTTTTTTTTTTTTTTTTTTTTTTTTTTTT MONMO3      TELAPSE       10.96 TCPU       10.07
 NUMERICALLY INTEGRATED DENSITY    212.0000441451    208.0000432458
 TTTTTTTTTTTTTTTTTTTTTTTTTTTTTT NUMDFT      TELAPSE       11.41 TCPU       10.52
 CYC   0 ETOT(AU) -3.599765646655E+03 DETOT -3.60E+03 tst  0.00E+00 PX  1.00E+00
 TTTTTTTTTTTTTTTTTTTTTTTTTTTTTT FDIK        TELAPSE       14.53 TCPU       13.65
 SPIN LOCKING: NO ENERGY GAP COMPUTED
 TTTTTTTTTTTTTTTTTTTTTTTTTTTTTT PDIG        TELAPSE       14.66 TCPU       13.77
 CHARGE NORMALIZATION FACTOR   1.00000000
 TOTAL ATOMIC CHARGES:
   6.1725861   6.1725861   6.1725861   6.1725861   6.1725861   6.1725861
   6.1725861   6.1725861   6.1725861   6.1725861   6.1725861   6.1725861
   6.1429495   6.1429495   6.1429495   6.1429495   6.1429495   6.1429495
   6.1429495   6.1429495   6.1429495   6.1429495   6.1429495   6.1429495
   0.8753635   0.8753635   0.8753635   0.8753635   0.8753635   0.8753635
   0.8753635   0.8753635   0.8753635   0.8753635   0.8753635   0.8753635
   0.8810967   0.8810967   0.8810967   0.8810967   0.8810967   0.8810967
   0.8810967   0.8810967   0.8810967   0.8810967   0.8810967   0.8810967
   5.2207465   5.2207465   5.2207465   5.2207465   5.2207465   5.2207465
   6.1012719   6.1012719   6.1012719   6.1012719   6.1012719   6.1012719
   3.7433434   3.7433434   3.7433434   3.7433434   3.7433434   3.7433434
   8.0807986   8.0807986   8.0807986   8.0807986   8.0807986   8.0807986
   6.3889014   6.3889014   6.3889014   6.3889014   6.3889014   6.3889014
   9.0208240   9.0208240   9.0208240   9.0208240   9.0208240   9.0208240
  19.8007355
 SUMMED SPIN DENSITY           2.00000000
 TOTAL ATOMIC SPINS  :
   0.0042370   0.0042370   0.0042370   0.0042370   0.0042370   0.0042370
   0.0042370   0.0042370   0.0042370   0.0042370   0.0042370   0.0042370
   0.0075519   0.0075519   0.0075519   0.0075519   0.0075519   0.0075519
   0.0075519   0.0075519   0.0075519   0.0075519   0.0075519   0.0075519
   0.0000572   0.0000572   0.0000572   0.0000572   0.0000572   0.0000572
   0.0000572   0.0000572   0.0000572   0.0000572   0.0000572   0.0000572
   0.0000462   0.0000462   0.0000462   0.0000462   0.0000462   0.0000462
   0.0000462   0.0000462   0.0000462   0.0000462   0.0000462   0.0000462
   0.0136436   0.0136436   0.0136436   0.0136436   0.0136436   0.0136436
   0.0088090   0.0088090   0.0088090   0.0088090   0.0088090   0.0088090
   0.0472002   0.0472002   0.0472002   0.0472002   0.0472002   0.0472002
   0.0068861   0.0068861   0.0068861   0.0068861   0.0068861   0.0068861
   0.0029538   0.0029538   0.0029538   0.0029538   0.0029538   0.0029538
  -0.0050030  -0.0050030  -0.0050030  -0.0050030  -0.0050030  -0.0050030
   1.4103536
 TTTTTTTTTTTTTTTTTTTTTTTTTTTTTT MOQGAD      TELAPSE       14.67 TCPU       13.78
 TTTTTTTTTTTTTTTTTTTTTTTTTTTTTT SHELLXN     TELAPSE       22.08 TCPU       21.19
 TTTTTTTTTTTTTTTTTTTTTTTTTTTTTT MONMO3      TELAPSE       23.79 TCPU       22.90
 NUMERICALLY INTEGRATED DENSITY    210.9999585278    208.9999600600
 TTTTTTTTTTTTTTTTTTTTTTTTTTTTTT NUMDFT      TELAPSE       25.18 TCPU       24.29
 CYC   1 ETOT(AU) -3.581659520616E+03 DETOT  1.81E+01 tst  0.00E+00 PX  1.00E+00
 TTTTTTTTTTTTTTTTTTTTTTTTTTTTTT FDIK        TELAPSE       26.00 TCPU       25.11
 SPIN LOCKING: NO ENERGY GAP COMPUTED
 TTTTTTTTTTTTTTTTTTTTTTTTTTTTTT PDIG        TELAPSE       26.12 TCPU       25.23
 CHARGE NORMALIZATION FACTOR   1.00014883
 TOTAL ATOMIC CHARGES:
   6.0519730   6.0519730   6.0519730   6.0519730   6.0519730   6.0519730
   6.0519730   6.0519730   6.0519730   6.0519730   6.0519730   6.0519730
   6.1127673   6.1127673   6.1127673   6.1127673   6.1127673   6.1127673
   6.1127673   6.1127673   6.1127673   6.1127673   6.1127673   6.1127673
   0.8900437   0.8900437   0.8900437   0.8900437   0.8900437   0.8900437
   0.8900437   0.8900437   0.8900437   0.8900437   0.8900437   0.8900437
   0.9046827   0.9046827   0.9046827   0.9046827   0.9046827   0.9046827
   0.9046827   0.9046827   0.9046827   0.9046827   0.9046827   0.9046827
   5.1216700   5.1216700   5.1216700   5.1216700   5.1216700   5.1216700
   5.9534047   5.9534047   5.9534047   5.9534047   5.9534047   5.9534047
   3.9034979   3.9034979   3.9034979   3.9034979   3.9034979   3.9034979
   7.8309894   7.8309894   7.8309894   7.8309894   7.8309894   7.8309894
   6.3025180   6.3025180   6.3025180   6.3025180   6.3025180   6.3025180
   9.0345292   9.0345292   9.0345292   9.0345292   9.0345292   9.0345292
  23.6067448
 SUMMED SPIN DENSITY           1.93778836
 TOTAL ATOMIC SPINS  :
  -0.0203615  -0.0203615  -0.0203615  -0.0203615  -0.0203615  -0.0203615
  -0.0203615  -0.0203615  -0.0203615  -0.0203615  -0.0203615  -0.0203615
  -0.0255499  -0.0255499  -0.0255499  -0.0255499  -0.0255499  -0.0255499
  -0.0255499  -0.0255499  -0.0255499  -0.0255499  -0.0255499  -0.0255499
   0.0000598   0.0000598   0.0000598   0.0000598   0.0000598   0.0000598
   0.0000598   0.0000598   0.0000598   0.0000598   0.0000598   0.0000598
  -0.0001025  -0.0001025  -0.0001025  -0.0001025  -0.0001025  -0.0001025
  -0.0001025  -0.0001025  -0.0001025  -0.0001025  -0.0001025  -0.0001025
  -0.0133558  -0.0133558  -0.0133558  -0.0133558  -0.0133558  -0.0133558
  -0.0622192  -0.0622192  -0.0622192  -0.0622192  -0.0622192  -0.0622192
  -0.0799927  -0.0799927  -0.0799927  -0.0799927  -0.0799927  -0.0799927
  -0.0684098  -0.0684098  -0.0684098  -0.0684098  -0.0684098  -0.0684098
  -0.0440635  -0.0440635  -0.0440635  -0.0440635  -0.0440635  -0.0440635
   0.0216864   0.0216864   0.0216864   0.0216864   0.0216864   0.0216864
   3.9673653
 TTTTTTTTTTTTTTTTTTTTTTTTTTTTTT MOQGAD      TELAPSE       26.14 TCPU       25.24
 TTTTTTTTTTTTTTTTTTTTTTTTTTTTTT SHELLXN     TELAPSE       33.54 TCPU       32.65
 TTTTTTTTTTTTTTTTTTTTTTTTTTTTTT MONMO3      TELAPSE       35.28 TCPU       34.39
 NUMERICALLY INTEGRATED DENSITY    210.9688641913    209.0310695480
 TTTTTTTTTTTTTTTTTTTTTTTTTTTTTT NUMDFT      TELAPSE       36.61 TCPU       35.71
 CYC   2 ETOT(AU) -3.585755837814E+03 DETOT -4.10E+00 tst  1.01E-01 PX  4.38E-01
 TTTTTTTTTTTTTTTTTTTTTTTTTTTTTT FDIK        TELAPSE       37.52 TCPU       36.63
 SPIN LOCKING: NO ENERGY GAP COMPUTED
 TTTTTTTTTTTTTTTTTTTTTTTTTTTTTT PDIG        TELAPSE       37.65 TCPU       36.75
 CHARGE NORMALIZATION FACTOR   0.99985121
 TOTAL ATOMIC CHARGES:
   6.0660810   6.0660810   6.0660810   6.0660810   6.0660810   6.0660810
   6.0660810   6.0660810   6.0660810   6.0660810   6.0660810   6.0660810
   6.0864939   6.0864939   6.0864939   6.0864939   6.0864939   6.0864939
   6.0864939   6.0864939   6.0864939   6.0864939   6.0864939   6.0864939
   0.8997024   0.8997024   0.8997024   0.8997024   0.8997024   0.8997024
   0.8997024   0.8997024   0.8997024   0.8997024   0.8997024   0.8997024
   0.9151710   0.9151710   0.9151710   0.9151710   0.9151710   0.9151710
   0.9151710   0.9151710   0.9151710   0.9151710   0.9151710   0.9151710
   5.1951271   5.1951271   5.1951271   5.1951271   5.1951271   5.1951271
   6.0328518   6.0328518   6.0328518   6.0328518   6.0328518   6.0328518
   3.9306799   3.9306799   3.9306799   3.9306799   3.9306799   3.9306799
   7.8750986   7.8750986   7.8750986   7.8750986   7.8750986   7.8750986
   6.3095565   6.3095565   6.3095565   6.3095565   6.3095565   6.3095565
   8.9817600   8.9817600   8.9817600   8.9817600   8.9817600   8.9817600
  22.4401778
 SUMMED SPIN DENSITY           2.06219313
 TOTAL ATOMIC SPINS  :
  -0.0076012  -0.0076012  -0.0076012  -0.0076012  -0.0076012  -0.0076012
  -0.0076012  -0.0076012  -0.0076012  -0.0076012  -0.0076012  -0.0076012
  -0.0194212  -0.0194212  -0.0194212  -0.0194212  -0.0194212  -0.0194212
  -0.0194212  -0.0194212  -0.0194212  -0.0194212  -0.0194212  -0.0194212
   0.0000658   0.0000658   0.0000658   0.0000658   0.0000658   0.0000658
   0.0000658   0.0000658   0.0000658   0.0000658   0.0000658   0.0000658
   0.0000015   0.0000015   0.0000015   0.0000015   0.0000015   0.0000015
   0.0000015   0.0000015   0.0000015   0.0000015   0.0000015   0.0000015
  -0.0211811  -0.0211811  -0.0211811  -0.0211811  -0.0211811  -0.0211811
  -0.0354365  -0.0354365  -0.0354365  -0.0354365  -0.0354365  -0.0354365
  -0.0595246  -0.0595246  -0.0595246  -0.0595246  -0.0595246  -0.0595246
  -0.0309791  -0.0309791  -0.0309791  -0.0309791  -0.0309791  -0.0309791
  -0.0209769  -0.0209769  -0.0209769  -0.0209769  -0.0209769  -0.0209769
  -0.0023270  -0.0023270  -0.0023270  -0.0023270  -0.0023270  -0.0023270
   3.4082073
 TTTTTTTTTTTTTTTTTTTTTTTTTTTTTT MOQGAD      TELAPSE       37.66 TCPU       36.76
 TTTTTTTTTTTTTTTTTTTTTTTTTTTTTT SHELLXN     TELAPSE       45.07 TCPU       44.17
 TTTTTTTTTTTTTTTTTTTTTTTTTTTTTT MONMO3      TELAPSE       46.79 TCPU       45.89
 NUMERICALLY INTEGRATED DENSITY    211.0310640271    208.9688631970
 TTTTTTTTTTTTTTTTTTTTTTTTTTTTTT NUMDFT      TELAPSE       48.11 TCPU       47.22
 CYC   3 ETOT(AU) -3.585595998838E+03 DETOT  1.60E-01 tst  4.28E-03 PX  2.02E-01
 ANDERSON MIX: BETA=   2.051358831552E-01
 TTTTTTTTTTTTTTTTTTTTTTTTTTTTTT FDIK        TELAPSE       49.09 TCPU       48.19
 SPIN LOCKING: NO ENERGY GAP COMPUTED
 TTTTTTTTTTTTTTTTTTTTTTTTTTTTTT PDIG        TELAPSE       49.21 TCPU       48.31
 CHARGE NORMALIZATION FACTOR   0.99985121
 TOTAL ATOMIC CHARGES:
   6.0505578   6.0505578   6.0505578   6.0505578   6.0505578   6.0505578
   6.0505578   6.0505578   6.0505578   6.0505578   6.0505578   6.0505578
   6.0717923   6.0717923   6.0717923   6.0717923   6.0717923   6.0717923
   6.0717923   6.0717923   6.0717923   6.0717923   6.0717923   6.0717923
   0.9065598   0.9065598   0.9065598   0.9065598   0.9065598   0.9065598
   0.9065598   0.9065598   0.9065598   0.9065598   0.9065598   0.9065598
   0.9239144   0.9239144   0.9239144   0.9239144   0.9239144   0.9239144
   0.9239144   0.9239144   0.9239144   0.9239144   0.9239144   0.9239144
   5.2180666   5.2180666   5.2180666   5.2180666   5.2180666   5.2180666
   6.0270972   6.0270972   6.0270972   6.0270972   6.0270972   6.0270972
   3.9735184   3.9735184   3.9735184   3.9735184   3.9735184   3.9735184
   7.8448964   7.8448964   7.8448964   7.8448964   7.8448964   7.8448964
   6.2937710   6.2937710   6.2937710   6.2937710   6.2937710   6.2937710
   8.9686856   8.9686856   8.9686856   8.9686856   8.9686856   8.9686856
  22.6098976
 SUMMED SPIN DENSITY           2.06219313
 TOTAL ATOMIC SPINS  :
  -0.0041460  -0.0041460  -0.0041460  -0.0041460  -0.0041460  -0.0041460
  -0.0041460  -0.0041460  -0.0041460  -0.0041460  -0.0041460  -0.0041460
  -0.0200940  -0.0200940  -0.0200940  -0.0200940  -0.0200940  -0.0200940
  -0.0200940  -0.0200940  -0.0200940  -0.0200940  -0.0200940  -0.0200940
   0.0000934   0.0000934   0.0000934   0.0000934   0.0000934   0.0000934
   0.0000934   0.0000934   0.0000934   0.0000934   0.0000934   0.0000934
   0.0000696   0.0000696   0.0000696   0.0000696   0.0000696   0.0000696
   0.0000696   0.0000696   0.0000696   0.0000696   0.0000696   0.0000696
  -0.0136278  -0.0136278  -0.0136278  -0.0136278  -0.0136278  -0.0136278
  -0.0328826  -0.0328826  -0.0328826  -0.0328826  -0.0328826  -0.0328826
  -0.0755293  -0.0755293  -0.0755293  -0.0755293  -0.0755293  -0.0755293
  -0.0263111  -0.0263111  -0.0263111  -0.0263111  -0.0263111  -0.0263111
  -0.0123855  -0.0123855  -0.0123855  -0.0123855  -0.0123855  -0.0123855
  -0.0078539  -0.0078539  -0.0078539  -0.0078539  -0.0078539  -0.0078539
   3.3626584
 TTTTTTTTTTTTTTTTTTTTTTTTTTTTTT MOQGAD      TELAPSE       49.22 TCPU       48.32
 TTTTTTTTTTTTTTTTTTTTTTTTTTTTTT SHELLXN     TELAPSE       56.63 TCPU       55.72
 TTTTTTTTTTTTTTTTTTTTTTTTTTTTTT MONMO3      TELAPSE       58.37 TCPU       57.46
 NUMERICALLY INTEGRATED DENSITY    211.0310626382    208.9688633108
 TTTTTTTTTTTTTTTTTTTTTTTTTTTTTT NUMDFT      TELAPSE       59.78 TCPU       58.87
 CYC   4 ETOT(AU) -3.585717476415E+03 DETOT -1.21E-01 tst  5.43E-04 PX  2.25E-02
 ANDERSON MIX: BETA=  -6.209945411161E-01
 TTTTTTTTTTTTTTTTTTTTTTTTTTTTTT FDIK        TELAPSE       60.68 TCPU       59.77
 POSSIBLY CONDUCTING STATE - EFERMI(AU) -1.5766710E-01 (RES. CHARGE  1.59E-12;IT. 28)
 TTTTTTTTTTTTTTTTTTTTTTTTTTTTTT PDIG        TELAPSE       60.80 TCPU       59.89
 CHARGE NORMALIZATION FACTOR   1.00000000
 TOTAL ATOMIC CHARGES:
   6.0323719   6.0323719   6.0323719   6.0323719   6.0323719   6.0323719
   6.0323719   6.0323719   6.0323719   6.0323719   6.0323719   6.0323719
   6.0374052   6.0374052   6.0374052   6.0374052   6.0374052   6.0374052
   6.0374052   6.0374052   6.0374052   6.0374052   6.0374052   6.0374052
   0.9168903   0.9168903   0.9168903   0.9168903   0.9168903   0.9168903
   0.9168903   0.9168903   0.9168903   0.9168903   0.9168903   0.9168903
   0.9364796   0.9364796   0.9364796   0.9364796   0.9364796   0.9364796
   0.9364796   0.9364796   0.9364796   0.9364796   0.9364796   0.9364796
   5.2579592   5.2579592   5.2579592   5.2579592   5.2579592   5.2579592
   6.0106959   6.0106959   6.0106959   6.0106959   6.0106959   6.0106959
   3.9750821   3.9750821   3.9750821   3.9750821   3.9750821   3.9750821
   7.8000993   7.8000993   7.8000993   7.8000993   7.8000993   7.8000993
   6.2681968   6.2681968   6.2681968   6.2681968   6.2681968   6.2681968
   8.9789517   8.9789517   8.9789517   8.9789517   8.9789517   8.9789517
  23.1763260
 SUMMED SPIN DENSITY           4.00000000
 TOTAL ATOMIC SPINS  :
   0.0006496   0.0006496   0.0006496   0.0006496   0.0006496   0.0006496
   0.0006496   0.0006496   0.0006496   0.0006496   0.0006496   0.0006496
  -0.0067583  -0.0067583  -0.0067583  -0.0067583  -0.0067583  -0.0067583
  -0.0067583  -0.0067583  -0.0067583  -0.0067583  -0.0067583  -0.0067583
   0.0001533   0.0001533   0.0001533   0.0001533   0.0001533   0.0001533
   0.0001533   0.0001533   0.0001533   0.0001533   0.0001533   0.0001533
   0.0003568   0.0003568   0.0003568   0.0003568   0.0003568   0.0003568
   0.0003568   0.0003568   0.0003568   0.0003568   0.0003568   0.0003568
  -0.0050083  -0.0050083  -0.0050083  -0.0050083  -0.0050083  -0.0050083
  -0.0121628  -0.0121628  -0.0121628  -0.0121628  -0.0121628  -0.0121628
  -0.0285251  -0.0285251  -0.0285251  -0.0285251  -0.0285251  -0.0285251
  -0.0142473  -0.0142473  -0.0142473  -0.0142473  -0.0142473  -0.0142473
   0.0005680   0.0005680   0.0005680   0.0005680   0.0005680   0.0005680
   0.0450140   0.0450140   0.0450140   0.0450140   0.0450140   0.0450140
   4.1533539
 TTTTTTTTTTTTTTTTTTTTTTTTTTTTTT MOQGAD      TELAPSE       60.81 TCPU       59.90
 TTTTTTTTTTTTTTTTTTTTTTTTTTTTTT SHELLXN     TELAPSE       68.22 TCPU       67.31
 TTTTTTTTTTTTTTTTTTTTTTTTTTTTTT MONMO3      TELAPSE       69.96 TCPU       69.05
 NUMERICALLY INTEGRATED DENSITY    211.9999636366    207.9999609117
 TTTTTTTTTTTTTTTTTTTTTTTTTTTTTT NUMDFT      TELAPSE       71.28 TCPU       70.37
 CYC   5 ETOT(AU) -3.586095291719E+03 DETOT -3.78E-01 tst  5.13E-04 PX  1.71E-01
 ANDERSON MIX: BETA=   8.115776605475E-01
 TTTTTTTTTTTTTTTTTTTTTTTTTTTTTT FDIK        TELAPSE       72.24 TCPU       71.33
 POSSIBLY CONDUCTING STATE - EFERMI(AU) -1.5616382E-01 (RES. CHARGE  3.10E-11;IT. 28)
 TTTTTTTTTTTTTTTTTTTTTTTTTTTTTT PDIG        TELAPSE       72.37 TCPU       71.45
 CHARGE NORMALIZATION FACTOR   1.00000000
 TOTAL ATOMIC CHARGES:
   6.0357811   6.0357811   6.0357811   6.0357811   6.0357811   6.0357811
   6.0357811   6.0357811   6.0357811   6.0357811   6.0357811   6.0357811
   6.0418345   6.0418345   6.0418345   6.0418345   6.0418345   6.0418345
   6.0418345   6.0418345   6.0418345   6.0418345   6.0418345   6.0418345
   0.9151110   0.9151110   0.9151110   0.9151110   0.9151110   0.9151110
   0.9151110   0.9151110   0.9151110   0.9151110   0.9151110   0.9151110
   0.9341848   0.9341848   0.9341848   0.9341848   0.9341848   0.9341848
   0.9341848   0.9341848   0.9341848   0.9341848   0.9341848   0.9341848
   5.2495082   5.2495082   5.2495082   5.2495082   5.2495082   5.2495082
   6.0123163   6.0123163   6.0123163   6.0123163   6.0123163   6.0123163
   3.9661346   3.9661346   3.9661346   3.9661346   3.9661346   3.9661346
   7.8088495   7.8088495   7.8088495   7.8088495   7.8088495   7.8088495
   6.2719296   6.2719296   6.2719296   6.2719296   6.2719296   6.2719296
   8.9831719   8.9831719   8.9831719   8.9831719   8.9831719   8.9831719
  23.1256027
 SUMMED SPIN DENSITY           4.00000000
 TOTAL ATOMIC SPINS  :
  -0.0001092  -0.0001092  -0.0001092  -0.0001092  -0.0001092  -0.0001092
  -0.0001092  -0.0001092  -0.0001092  -0.0001092  -0.0001092  -0.0001092
  -0.0066229  -0.0066229  -0.0066229  -0.0066229  -0.0066229  -0.0066229
  -0.0066229  -0.0066229  -0.0066229  -0.0066229  -0.0066229  -0.0066229
   0.0001564   0.0001564   0.0001564   0.0001564   0.0001564   0.0001564
   0.0001564   0.0001564   0.0001564   0.0001564   0.0001564   0.0001564
   0.0003444   0.0003444   0.0003444   0.0003444   0.0003444   0.0003444
   0.0003444   0.0003444   0.0003444   0.0003444   0.0003444   0.0003444
  -0.0060600  -0.0060600  -0.0060600  -0.0060600  -0.0060600  -0.0060600
  -0.0124738  -0.0124738  -0.0124738  -0.0124738  -0.0124738  -0.0124738
  -0.0246992  -0.0246992  -0.0246992  -0.0246992  -0.0246992  -0.0246992
  -0.0152068  -0.0152068  -0.0152068  -0.0152068  -0.0152068  -0.0152068
  -0.0012264  -0.0012264  -0.0012264  -0.0012264  -0.0012264  -0.0012264
   0.0455470   0.0455470   0.0455470   0.0455470   0.0455470   0.0455470
   4.1594907
 TTTTTTTTTTTTTTTTTTTTTTTTTTTTTT MOQGAD      TELAPSE       72.38 TCPU       71.47
 TTTTTTTTTTTTTTTTTTTTTTTTTTTTTT SHELLXN     TELAPSE       79.79 TCPU       78.87
 TTTTTTTTTTTTTTTTTTTTTTTTTTTTTT MONMO3      TELAPSE       81.53 TCPU       80.61
 NUMERICALLY INTEGRATED DENSITY    211.9999639982    207.9999609865
 TTTTTTTTTTTTTTTTTTTTTTTTTTTTTT NUMDFT      TELAPSE       82.86 TCPU       81.94
 CYC   6 ETOT(AU) -3.586098975886E+03 DETOT -3.68E-03 tst  7.83E-05 PX  7.88E-03
 ANDERSON MIX: BETA=  -6.069576419672E+00
 TTTTTTTTTTTTTTTTTTTTTTTTTTTTTT FDIK        TELAPSE       83.67 TCPU       82.75
 POSSIBLY CONDUCTING STATE - EFERMI(AU) -1.4792125E-01 (RES. CHARGE  2.92E-10;IT. 26)
[...]
                  1 C    (  0  0  0)     2.631     1.392     0.004
                 49 C    (  0  0  0)     2.764     1.463    -0.008
                 26 H    (  0  0  0)     4.028     2.132    -0.000
                 15 C    ( -1 -1  0)     4.526     2.395     0.001
                 68 N    ( -1 -1  0)     4.535     2.400     0.001
                 73 C    (  0  0  0)     5.269     2.788    -0.001

 ATOM A  61 B    ATOM B     CELL      R(AB)/AU R(AB)/ANG    OVPOP(AB)
                 80 O    (  0  0  0)     2.647     1.401    -0.043
                 73 C    (  0  0  0)     2.858     1.513    -0.006
                 85 CR   (  0 -1  0)     4.500     2.381     0.007
                 62 B    (  0 -1  0)     4.675     2.474    -0.008
                 15 C    ( -1 -1  0)     4.783     2.531     0.001
                 37 H    (  0  0  0)     5.150     2.726     0.000

 ATOM A  67 N    ATOM B     CELL      R(AB)/AU R(AB)/ANG    OVPOP(AB)
                 50 C    (  1  0  0)     2.526     1.337     0.005
                 68 N    (  0 -1  0)     4.462     2.361     0.001
                 56 C    (  1  0  0)     4.535     2.400     0.001
                 27 H    (  0  0  0)     4.579     2.423     0.000
                 49 C    (  1  0  0)     5.048     2.671    -0.001
                  2 C    (  0  0  0)     5.275     2.791    -0.000

 ATOM A  73 C    ATOM B     CELL      R(AB)/AU R(AB)/ANG    OVPOP(AB)
                 15 C    ( -1 -1  0)     2.640     1.397     0.004
                 61 B    (  0  0  0)     2.858     1.513    -0.006
                 37 H    (  0  0  0)     4.057     2.147    -0.000
                  1 C    (  0  0  0)     4.552     2.409     0.001
                 80 O    (  0  0  0)     4.812     2.546    -0.002
                 55 C    (  0  0  0)     5.269     2.788    -0.001

 ATOM A  79 O    ATOM B     CELL      R(AB)/AU R(AB)/ANG    OVPOP(AB)
                 62 B    (  0  0  0)     2.647     1.401    -0.043
                 85 CR   (  0  0  0)     4.427     2.343     0.023
                 80 O    (  0  1  0)     4.488     2.375     0.010
                 74 C    (  0  0  0)     4.812     2.546    -0.002
                 39 H    (  0  0  0)     4.928     2.608     0.000
                 61 B    (  0  1  0)     5.290     2.800     0.004

 ATOM A  85 CR   ATOM B     CELL      R(AB)/AU R(AB)/ANG    OVPOP(AB)
                 79 O    (  0  0  0)     4.427     2.343     0.023
                 61 B    (  0  1  0)     4.500     2.381     0.007
                 73 C    (  0  1  0)     6.460     3.419    -0.001
                 37 H    (  0  1  0)     7.831     4.144     0.000
                 13 C    (  0  0  0)     7.933     4.198    -0.000
                  1 C    (  0  1  0)    10.228     5.412     0.000
 EIGENVECTORS IN FORTRAN UNIT  8

 FINAL OPTIMIZED GEOMETRY - DIMENSIONALITY OF THE SYSTEM      2
 (NON PERIODIC DIRECTION: LATTICE PARAMETER FORMALLY SET TO 500)
 *******************************************************************************
 LATTICE PARAMETERS (ANGSTROMS AND DEGREES) - BOHR = 0.5291772083 ANGSTROM
 PRIMITIVE CELL
         A              B              C           ALPHA      BETA       GAMMA 
    14.70518845    14.70518845   500.00000000    90.000000  90.000000 120.000000
 *******************************************************************************
 ATOMS IN THE ASYMMETRIC UNIT   11 - ATOMS IN THE UNIT CELL:   85
     ATOM                 X/A                 Y/B             Z(ANGSTROM)
 *******************************************************************************
      1 T   6 C    -4.485445731544E-01 -3.879066234094E-01  1.635193602085E+00
      2 F   6 C     3.879066234094E-01 -6.063794974502E-02  1.635193602085E+00
      3 F   6 C     6.063794974502E-02  4.485445731544E-01  1.635193602085E+00
      4 F   6 C     3.879066234094E-01  4.485445731544E-01 -1.635193602085E+00
      5 F   6 C    -4.485445731544E-01 -6.063794974502E-02 -1.635193602085E+00
      6 F   6 C     6.063794974502E-02 -3.879066234094E-01 -1.635193602085E+00
      7 F   6 C     6.063794974502E-02 -3.879066234094E-01  1.635193602085E+00
      8 F   6 C    -4.485445731544E-01 -6.063794974502E-02  1.635193602085E+00
      9 F   6 C     3.879066234094E-01  4.485445731544E-01  1.635193602085E+00
     10 F   6 C    -4.485445731544E-01 -3.879066234094E-01 -1.635193602085E+00
     11 F   6 C     6.063794974502E-02  4.485445731544E-01 -1.635193602085E+00
     12 F   6 C     3.879066234094E-01 -6.063794974502E-02 -1.635193602085E+00
     13 T   6 C    -3.949610367200E-01  4.692758016663E-02  1.696750974553E+00
     14 F   6 C    -4.692758016663E-02 -4.418886168867E-01  1.696750974553E+00
     15 F   6 C     4.418886168867E-01  3.949610367200E-01  1.696750974553E+00
     16 F   6 C    -4.692758016663E-02  3.949610367200E-01 -1.696750974553E+00
     17 F   6 C    -3.949610367200E-01 -4.418886168867E-01 -1.696750974553E+00
     18 F   6 C     4.418886168867E-01  4.692758016663E-02 -1.696750974553E+00
     19 F   6 C     4.418886168867E-01  4.692758016663E-02  1.696750974553E+00
     20 F   6 C    -3.949610367200E-01 -4.418886168867E-01  1.696750974553E+00
     21 F   6 C    -4.692758016663E-02  3.949610367200E-01  1.696750974553E+00
     22 F   6 C    -3.949610367200E-01  4.692758016663E-02 -1.696750974553E+00
     23 F   6 C     4.418886168867E-01  3.949610367200E-01 -1.696750974553E+00
     24 F   6 C    -4.692758016663E-02 -4.418886168867E-01 -1.696750974553E+00
     25 T   1 H     1.046786509762E-01  4.077105255235E-01  1.601302620108E+00
     26 F   1 H    -4.077105255235E-01 -3.030318745474E-01  1.601302620108E+00
     27 F   1 H     3.030318745474E-01 -1.046786509762E-01  1.601302620108E+00
     28 F   1 H    -4.077105255235E-01 -1.046786509762E-01 -1.601302620108E+00
     29 F   1 H     1.046786509762E-01 -3.030318745474E-01 -1.601302620108E+00
     30 F   1 H     3.030318745474E-01  4.077105255235E-01 -1.601302620108E+00
     31 F   1 H     3.030318745474E-01  4.077105255235E-01  1.601302620108E+00
     32 F   1 H     1.046786509762E-01 -3.030318745474E-01  1.601302620108E+00
     33 F   1 H    -4.077105255235E-01 -1.046786509762E-01  1.601302620108E+00
     34 F   1 H     1.046786509762E-01  4.077105255235E-01 -1.601302620108E+00
     35 F   1 H     3.030318745474E-01 -1.046786509762E-01 -1.601302620108E+00
     36 F   1 H    -4.077105255235E-01 -3.030318745474E-01 -1.601302620108E+00
     37 T   1 H    -3.098065455440E-01 -3.992145212607E-01  1.716567710206E+00
     38 F   1 H     3.992145212607E-01  8.940797571671E-02  1.716567710206E+00
     39 F   1 H    -8.940797571671E-02  3.098065455440E-01  1.716567710206E+00
     40 F   1 H     3.992145212607E-01  3.098065455440E-01 -1.716567710206E+00
     41 F   1 H    -3.098065455440E-01  8.940797571671E-02 -1.716567710206E+00
     42 F   1 H    -8.940797571671E-02 -3.992145212607E-01 -1.716567710206E+00
     43 F   1 H    -8.940797571671E-02 -3.992145212607E-01  1.716567710206E+00
     44 F   1 H    -3.098065455440E-01  8.940797571671E-02  1.716567710206E+00
     45 F   1 H     3.992145212607E-01  3.098065455440E-01  1.716567710206E+00
     46 F   1 H    -3.098065455440E-01 -3.992145212607E-01 -1.716567710206E+00
     47 F   1 H    -8.940797571671E-02  3.098065455440E-01 -1.716567710206E+00
     48 F   1 H     3.992145212607E-01  8.940797571671E-02 -1.716567710206E+00
     49 T   6 C     3.846990343751E-01 -3.846990343751E-01  1.623731392628E+00
     50 F   6 C     3.846990343751E-01 -2.306019312497E-01  1.623731392628E+00
     51 F   6 C     2.306019312497E-01 -3.846990343751E-01  1.623731392628E+00
     52 F   6 C     3.846990343751E-01 -3.846990343751E-01 -1.623731392628E+00
     53 F   6 C     3.846990343751E-01 -2.306019312497E-01 -1.623731392628E+00
     54 F   6 C     2.306019312497E-01 -3.846990343751E-01 -1.623731392628E+00
     55 T   6 C     4.421298049156E-01 -4.421298049156E-01  1.625800925159E+00
     56 F   6 C     4.421298049156E-01 -1.157403901688E-01  1.625800925159E+00
     57 F   6 C     1.157403901688E-01 -4.421298049156E-01  1.625800925159E+00
     58 F   6 C     4.421298049156E-01 -4.421298049156E-01 -1.625800925159E+00
     59 F   6 C     4.421298049156E-01 -1.157403901688E-01 -1.625800925159E+00
     60 F   6 C     1.157403901688E-01 -4.421298049156E-01 -1.625800925159E+00
     61 T   5 B    -3.894159047739E-01  3.894159047739E-01  1.905051656218E+00
     62 F   5 B    -3.894159047739E-01  2.211681904522E-01  1.905051656218E+00
     63 F   5 B    -2.211681904522E-01  3.894159047739E-01  1.905051656218E+00
     64 F   5 B    -3.894159047739E-01  3.894159047739E-01 -1.905051656218E+00
     65 F   5 B    -3.894159047739E-01  2.211681904522E-01 -1.905051656218E+00
     66 F   5 B    -2.211681904522E-01  3.894159047739E-01 -1.905051656218E+00
     67 T   7 N     2.798126154173E-01 -2.798126154173E-01  1.629754902553E+00
     68 F   7 N     2.798126154173E-01 -4.403747691654E-01  1.629754902553E+00
     69 F   7 N     4.403747691654E-01 -2.798126154173E-01  1.629754902553E+00
     70 F   7 N     2.798126154173E-01 -2.798126154173E-01 -1.629754902553E+00
     71 F   7 N     2.798126154173E-01 -4.403747691654E-01 -1.629754902553E+00
     72 F   7 N     4.403747691654E-01 -2.798126154173E-01 -1.629754902553E+00
     73 T   6 C    -4.485117954676E-01  4.485117954676E-01  1.755171772186E+00
     74 F   6 C    -4.485117954676E-01  1.029764090648E-01  1.755171772186E+00
     75 F   6 C    -1.029764090648E-01  4.485117954676E-01  1.755171772186E+00
     76 F   6 C    -4.485117954676E-01  4.485117954676E-01 -1.755171772186E+00
     77 F   6 C    -4.485117954676E-01  1.029764090648E-01 -1.755171772186E+00
     78 F   6 C    -1.029764090648E-01  4.485117954676E-01 -1.755171772186E+00
     79 T   8 O    -2.794999188643E-01  2.794999188643E-01  1.899625741338E+00
     80 F   8 O    -2.794999188643E-01  4.410001622714E-01  1.899625741338E+00
     81 F   8 O    -4.410001622714E-01  2.794999188643E-01  1.899625741338E+00
     82 F   8 O    -2.794999188643E-01  2.794999188643E-01 -1.899625741338E+00
     83 F   8 O    -2.794999188643E-01  4.410001622714E-01 -1.899625741338E+00
     84 F   8 O    -4.410001622714E-01  2.794999188643E-01 -1.899625741338E+00
     85 T  24 CR   -3.333333333333E-01  3.333333333333E-01  0.000000000000E+00

 T = ATOM BELONGING TO THE ASYMMETRIC UNIT
 INFORMATION **** fort.34 **** GEOMETRY OUTPUT FILE

 DIRECT LATTICE VECTORS CARTESIAN COMPONENTS (ANGSTROM)
          X                    Y                    Z
   0.127350667649E+02  -0.735259422486E+01   0.000000000000E+00
   0.000000000000E+00   0.147051884497E+02   0.000000000000E+00
   0.000000000000E+00   0.000000000000E+00   0.500000000000E+03


 CARTESIAN COORDINATES - PRIMITIVE CELL
 *******************************************************************************
 *      ATOM          X(ANGSTROM)         Y(ANGSTROM)         Z(ANGSTROM)
 *******************************************************************************
    1     6 C    -5.712245086153E+00 -2.406273759962E+00  1.635193602085E+00
    2     6 C     4.940016747664E+00 -3.743812477270E+00  1.635193602085E+00
    3     6 C     7.722283384892E-01  6.150086237233E+00  1.635193602085E+00
    4     6 C     4.940016747664E+00  3.743812477270E+00 -1.635193602085E+00
    5     6 C    -5.712245086153E+00  2.406273759962E+00 -1.635193602085E+00
    6     6 C     7.722283384892E-01 -6.150086237233E+00 -1.635193602085E+00
    7     6 C     7.722283384892E-01 -6.150086237233E+00  1.635193602085E+00
    8     6 C    -5.712245086153E+00  2.406273759962E+00  1.635193602085E+00
    9     6 C     4.940016747664E+00  3.743812477270E+00  1.635193602085E+00
   10     6 C    -5.712245086153E+00 -2.406273759962E+00 -1.635193602085E+00
   11     6 C     7.722283384892E-01  6.150086237233E+00 -1.635193602085E+00
   12     6 C     4.940016747664E+00 -3.743812477270E+00 -1.635193602085E+00
   13     6 C    -5.029855172162E+00  3.594067147473E+00  1.696750974553E+00
   14     6 C    -5.976258665371E-01 -6.153015930185E+00  1.696750974553E+00
   15     6 C     5.627481038699E+00  2.558948782713E+00  1.696750974553E+00
   16     6 C    -5.976258665371E-01  6.153015930185E+00 -1.696750974553E+00
   17     6 C    -5.029855172162E+00 -3.594067147473E+00 -1.696750974553E+00
   18     6 C     5.627481038699E+00 -2.558948782713E+00 -1.696750974553E+00
   19     6 C     5.627481038699E+00 -2.558948782713E+00  1.696750974553E+00
   20     6 C    -5.029855172162E+00 -3.594067147473E+00  1.696750974553E+00
   21     6 C    -5.976258665371E-01  6.153015930185E+00  1.696750974553E+00
   22     6 C    -5.029855172162E+00  3.594067147473E+00 -1.696750974553E+00
   23     6 C     5.627481038699E+00  2.558948782713E+00 -1.696750974553E+00
   24     6 C    -5.976258665371E-01 -6.153015930185E+00 -1.696750974553E+00
   25     1 H     1.333089609041E+00  5.225800466125E+00  1.601302620108E+00
   26     1 H    -5.192220763293E+00 -1.458410766112E+00  1.601302620108E+00
   27     1 H     3.859131154253E+00 -3.767389700013E+00  1.601302620108E+00
   28     1 H    -5.192220763293E+00  1.458410766112E+00 -1.601302620108E+00
   29     1 H     1.333089609041E+00 -5.225800466125E+00 -1.601302620108E+00
   30     1 H     3.859131154253E+00  3.767389700013E+00 -1.601302620108E+00
   31     1 H     3.859131154253E+00  3.767389700013E+00  1.601302620108E+00
   32     1 H     1.333089609041E+00 -5.225800466125E+00  1.601302620108E+00
   33     1 H    -5.192220763293E+00  1.458410766112E+00  1.601302620108E+00
   34     1 H     1.333089609041E+00  5.225800466125E+00 -1.601302620108E+00
   35     1 H     3.859131154253E+00 -3.767389700013E+00 -1.601302620108E+00
   36     1 H    -5.192220763293E+00 -1.458410766112E+00 -1.601302620108E+00
   37     1 H    -3.945407041705E+00 -3.592642949413E+00  1.716567710206E+00
   38     1 H     5.084023581771E+00 -1.620501251680E+00  1.716567710206E+00
   39     1 H    -1.138616540067E+00  5.213144201093E+00  1.716567710206E+00
   40     1 H     5.084023581771E+00  1.620501251680E+00 -1.716567710206E+00
   41     1 H    -3.945407041705E+00  3.592642949413E+00 -1.716567710206E+00
   42     1 H    -1.138616540067E+00 -5.213144201093E+00 -1.716567710206E+00
   43     1 H    -1.138616540067E+00 -5.213144201093E+00  1.716567710206E+00
   44     1 H    -3.945407041705E+00  3.592642949413E+00  1.716567710206E+00
   45     1 H     5.084023581771E+00  1.620501251680E+00  1.716567710206E+00
   46     1 H    -3.945407041705E+00 -3.592642949413E+00 -1.716567710206E+00
   47     1 H    -1.138616540067E+00  5.213144201093E+00 -1.716567710206E+00
   48     1 H     5.084023581771E+00 -1.620501251680E+00 -1.716567710206E+00
   49     6 C    -7.835898877738E+00 -1.133013470508E+00  1.623731392628E+00
   50     6 C    -7.835898877738E+00  1.133013470508E+00  1.623731392628E+00
   51     6 C     2.936730990579E+00 -7.352594224861E+00  1.623731392628E+00
   52     6 C    -7.835898877738E+00 -1.133013470508E+00 -1.623731392628E+00
   53     6 C    -7.835898877738E+00  1.133013470508E+00 -1.623731392628E+00
   54     6 C     2.936730990579E+00 -7.352594224861E+00 -1.623731392628E+00
   55     6 C    -7.104514180546E+00 -2.399808925923E+00  1.625800925159E+00
   56     6 C    -7.104514180546E+00  2.399808925923E+00  1.625800925159E+00
   57     6 C     1.473961596195E+00 -7.352594224861E+00  1.625800925159E+00
   58     6 C    -7.104514180546E+00 -2.399808925923E+00 -1.625800925159E+00
   59     6 C    -7.104514180546E+00  2.399808925923E+00 -1.625800925159E+00
   60     6 C     1.473961596195E+00 -7.352594224861E+00 -1.625800925159E+00
   61     5 B    -4.959237546608E+00 -6.115537052194E+00  1.905051656218E+00
   62     5 B    -4.959237546608E+00  6.115537052194E+00  1.905051656218E+00
   63     5 B    -2.816591671681E+00 -7.352594224861E+00  1.905051656218E+00
   64     5 B    -4.959237546608E+00 -6.115537052194E+00 -1.905051656218E+00
   65     5 B    -4.959237546608E+00  6.115537052194E+00 -1.905051656218E+00
   66     5 B    -2.816591671681E+00 -7.352594224861E+00 -1.905051656218E+00
   67     7 N     3.563432338999E+00 -6.172045860481E+00  1.629754902553E+00
   68     7 N     3.563432338999E+00  6.172045860481E+00  1.629754902553E+00
   69     7 N    -7.126864677999E+00 -1.604348825630E-19  1.629754902553E+00
   70     7 N     3.563432338999E+00 -6.172045860481E+00 -1.629754902553E+00
   71     7 N     3.563432338999E+00  6.172045860481E+00 -1.629754902553E+00
   72     7 N    -7.126864677999E+00 -1.604348825630E-19 -1.629754902553E+00
   73     6 C    -5.711827660123E+00 -4.812012738311E+00  1.755171772186E+00
   74     6 C    -5.711827660123E+00  4.812012738311E+00  1.755171772186E+00
   75     6 C    -1.311411444650E+00 -7.352594224861E+00  1.755171772186E+00
   76     6 C    -5.711827660123E+00 -4.812012738311E+00 -1.755171772186E+00
   77     6 C    -5.711827660123E+00  4.812012738311E+00 -1.755171772186E+00
   78     6 C    -1.311411444650E+00 -7.352594224861E+00 -1.755171772186E+00
   79     8 O    -3.559450127520E+00  6.165148467873E+00  1.899625741338E+00
   80     8 O    -3.559450127520E+00 -6.165148467873E+00  1.899625741338E+00
   81     8 O     7.118900255040E+00  9.304361232092E-16  1.899625741338E+00
   82     8 O    -3.559450127520E+00  6.165148467873E+00 -1.899625741338E+00
   83     8 O    -3.559450127520E+00 -6.165148467873E+00 -1.899625741338E+00
   84     8 O     7.118900255040E+00 -9.307569929743E-16 -1.899625741338E+00
   85    24 CR   -4.245022254966E+00  7.352594224861E+00  0.000000000000E+00

 ****   12 SYMMOPS - TRANSLATORS IN FRACTIONAL UNITS
 **** MATRICES AND TRANSLATORS IN THE CRYSTALLOGRAPHIC REFERENCE FRAME
   V INV                    ROTATION MATRICES                   TRANSLATORS
   1   1  1.00  0.00  0.00  0.00  1.00  0.00  0.00  0.00  1.00  0.00  0.00  0.00
   2   3 -0.00 -1.00  0.00  1.00 -1.00  0.00  0.00  0.00  1.00  0.00  0.00  0.00
   3   2 -1.00  1.00  0.00 -1.00 -0.00  0.00  0.00  0.00  1.00  0.00  0.00  0.00
   4   4 -0.00 -1.00  0.00 -1.00  0.00  0.00  0.00  0.00 -1.00  0.00  0.00  0.00
   5   5  1.00  0.00  0.00  1.00 -1.00  0.00  0.00  0.00 -1.00  0.00  0.00  0.00
   6   6 -1.00  1.00  0.00  0.00  1.00  0.00  0.00  0.00 -1.00  0.00  0.00  0.00
   7   7 -1.00  1.00  0.00  0.00  1.00  0.00  0.00  0.00  1.00  0.00  0.00  0.00
   8   8  1.00  0.00  0.00  1.00 -1.00  0.00  0.00  0.00  1.00  0.00  0.00  0.00
   9   9 -0.00 -1.00  0.00 -1.00  0.00  0.00  0.00  0.00  1.00  0.00  0.00  0.00
  10  10  1.00  0.00  0.00  0.00  1.00  0.00  0.00  0.00 -1.00  0.00  0.00  0.00
  11  12 -1.00  1.00  0.00 -1.00 -0.00  0.00  0.00  0.00 -1.00  0.00  0.00  0.00
  12  11 -0.00 -1.00  0.00  1.00 -1.00  0.00  0.00  0.00 -1.00  0.00  0.00  0.00
 TTTTTTTTTTTTTTTTTTTTTTTTTTTTTT END         TELAPSE     6416.13 TCPU     6406.80
 EEEEEEEEEE TERMINATION  DATE 09 09 2021 TIME 12:14:19.4
NODE    0 CPU TIME =      6406.804
NODE    1 CPU TIME =      6408.136
NODE    2 CPU TIME =      6408.932
NODE    3 CPU TIME =      6396.035
NODE    4 CPU TIME =      6406.220
NODE    5 CPU TIME =      6393.425
NODE    6 CPU TIME =      6405.995
NODE    7 CPU TIME =      6405.299
NODE    8 CPU TIME =      6406.446
NODE    9 CPU TIME =      6405.849
NODE   10 CPU TIME =      6406.170
NODE   11 CPU TIME =      6405.202
NODE   12 CPU TIME =      6406.751
NODE   13 CPU TIME =      6406.061
NODE   14 CPU TIME =      6406.009
NODE   15 CPU TIME =      6405.317
NODE   16 CPU TIME =      6406.272
NODE   17 CPU TIME =      6406.241
NODE   18 CPU TIME =      6404.841
NODE   19 CPU TIME =      6406.720
NODE   20 CPU TIME =      6407.036
NODE   21 CPU TIME =      6406.872
NODE   22 CPU TIME =      6407.171
NODE   23 CPU TIME =      6407.058
NODE   24 CPU TIME =      6406.921
NODE   25 CPU TIME =      6406.505
NODE   26 CPU TIME =      6407.347
NODE   27 CPU TIME =      6407.372
NODE   28 CPU TIME =      6407.466
NODE   29 CPU TIME =      6407.370
NODE   30 CPU TIME =      6409.682
NODE   31 CPU TIME =      6409.625
    TOTAL CPU TIME =    204993.151
