
         
 *******************************************************************************
 *                                                                             *
 *                               CRYSTAL17                                     *
 *                      public : 1.0.2 - March 1st, 2018                       *
 *                       HTTP://WWW.CRYSTAL.UNITO.IT                           *
 *                                                                             *
 *                              MAIN AUTHORS                                   *
 *                                                                             *
 *  R. DOVESI(1,11), V.R. SAUNDERS(2), C. ROETTI(1,11), R. ORLANDO(1,11),      *
 *  C.M. ZICOVICH-WILSON(1,3), F. PASCALE(4), B. CIVALLERI(1,11),              *
 *  K. DOLL(5), N.M. HARRISON(2,6), I.J. BUSH(7), Ph. D'ARCO(8),               *
 *  M. LLUNELL(9), M. CAUSA'(10), Y. NOEL(8), L. MASCHIO(1,11), A. ERBA(1,11)  *
 *  M. RE'RAT(14), S. CASASSA(1,11)                                            *
 *                                                                             *
 *        CONTRIBUTIONS TO THE CODE HAVE ALSO BEEN GIVEN BY                    *
 *                                                                             *
 *  M. FERRABONE(1,11), M. DE LA PIERRE(1,11), M. FERRERO(1,11),               *
 *  J. BAIMA(1,11), E. ALBANESE(1,11), M.F. PEINTINGER(12), R. BAST(13),       *
 *  B. KIRTMAN(15), V. LACIVITA(1,11), R. DEMICHELIS(1,16)                     *
 *  G. BRANDEBURG(17), S. SALUSTRO(1,11), G. SANSONE(1,11)                     *
 *  M.T. RUGGIERO(18)                                                          *
 *                                                                             *
 * (1) THEORETICAL CHEMISTRY GROUP - UNIVERSITA' DI TORINO - TORINO (ITALY)    *
 * (2) COMPUTATIONAL SCIENCE & ENGINEERING DEPARTMENT - STFC DARESBURY (UK)    *
 * (3) UNIVERSIDAD AUTONOMA DEL ESTADO DE MORELOS - CUERNAVACA (MEXICO)        *
 * (4) UNIVERSITE' DE LORRAINE - NANCY (FRANCE)                                *
 * (5) UNIVERSITAET STUTTGART- STUTTGART (GERMANY)                             *
 * (6) IMPERIAL COLLEGE - LONDON (UK)                                          *
 * (7) OXFORD E-RESEARCH CENTRE - OXFORD (UK)                                  *
 * (8) UPMC - SORBONNE UNIVERSITES - PARIS (FRANCE)                            *
 * (9) UNIVERSIDAD DE BARCELONA - BARCELONA (SPAIN)                            *
 *(10) UNIVERSITA' DI NAPOLI "FEDERICO II" - NAPOLI (ITALY)                    *
 *(11) NIS - NANOSTRUCTURED INTERFACES AND SURFACES - TORINO (ITALY)           *
 *(12) MPI FUER CHEMISCHE ENERGIEKONVERSION - MUELHEIM AN DER RUHR (GERMANY)   *
 *(13) UNIVERSITY OF TROMSO - TROMSO (NORWAY)                                  *
 *(14) UNIVERSITE' DE PAU ET DES PAYS DE L'ADOUR - PAU (FRANCE)                *
 *(15) UNIVERSITY OF CALIFORNIA SANTA BARBARA - SANTA BARBARA (USA)            *
 *(16) CURTIN UNIVERSITY - PERTH (AUSTRALIA)                                   *
 *(17) UNIVERSITY COLLEGE LONDON - LONDON (UK)                                 *
 *(18) CAMBRIDGE UNIVERSITY - CAMBRIDGE (UK)                                   *
 *                                                                             *
 *******************************************************************************
 EEEEEEEEEE STARTING  DATE 14 05 2022 TIME 13:46:55.4
 ZnFeO4_findsym_BULK                                                             

 CRYSTAL CALCULATION
 (INPUT ACCORDING TO THE INTERNATIONAL TABLES FOR X-RAY CRYSTALLOGRAPHY)
 CRYSTAL FAMILY                       :  TRICLINIC   
 CRYSTAL CLASS  (GROTH - 1921)        :  TRICLINIC PEDIAL                     

 SPACE GROUP (NONCENTROSYMMETRIC)     :  P 1             

 LATTICE PARAMETERS  (ANGSTROMS AND DEGREES) - CONVENTIONAL CELL
        A           B           C        ALPHA        BETA       GAMMA
     5.84311     5.84311     5.84311    60.00000    60.00000    60.00000


 NUMBER OF IRREDUCIBLE ATOMS IN THE CONVENTIONAL CELL:   14

 INPUT COORDINATES

 ATOM AT. N.              COORDINATES
   1  30     1.250000000000E-01  1.250000000000E-01  1.250000000000E-01
   2  30    -1.250000000000E-01 -1.250000000000E-01 -1.250000000000E-01
   3 226     5.000000000000E-01 -5.000000000000E-01 -5.000000000000E-01
   4 226     5.000000000000E-01 -5.000000000000E-01  0.000000000000E+00
   5 226     0.000000000000E+00 -5.000000000000E-01 -5.000000000000E-01
   6 226     5.000000000000E-01  0.000000000000E+00 -5.000000000000E-01
   7   8     2.490000000000E-01  2.490000000000E-01  2.490000000000E-01
   8   8     2.490000000000E-01  2.490000000000E-01 -2.470000000000E-01
   9   8    -2.470000000000E-01  2.490000000000E-01  2.490000000000E-01
  10   8     2.490000000000E-01 -2.470000000000E-01  2.490000000000E-01
  11   8    -2.490000000000E-01 -2.490000000000E-01 -2.490000000000E-01
  12   8    -2.490000000000E-01 -2.490000000000E-01  2.470000000000E-01
  13   8    -2.490000000000E-01  2.470000000000E-01 -2.490000000000E-01
  14   8     2.470000000000E-01 -2.490000000000E-01 -2.490000000000E-01

 *******************************************************************************

 << INFORMATION >>: FROM NOW ON, ALL COORDINATES REFER TO THE PRIMITIVE CELL

 *******************************************************************************

 LATTICE PARAMETERS  (ANGSTROMS AND DEGREES) - PRIMITIVE CELL
       A          B          C        ALPHA      BETA     GAMMA        VOLUME
    5.84311    5.84311    5.84311    60.00000  60.00000  60.00000    141.064033

 COORDINATES OF THE EQUIVALENT ATOMS (FRACTIONAL UNITS)

 N. ATOM EQUIV AT. N.          X                  Y                  Z

   1   1   1   30 ZN    1.25000000000E-01  1.25000000000E-01  1.25000000000E-01

   2   2   1   30 ZN   -1.25000000000E-01 -1.25000000000E-01 -1.25000000000E-01

   3   3   1  226 FE   -5.00000000000E-01  5.00000000000E-01  5.00000000000E-01

   4   4   1  226 FE   -5.00000000000E-01  5.00000000000E-01  0.00000000000E+00

   5   5   1  226 FE    0.00000000000E+00  5.00000000000E-01  5.00000000000E-01

   6   6   1  226 FE   -5.00000000000E-01  0.00000000000E+00  5.00000000000E-01

   7   7   1    8 O     2.49000000000E-01  2.49000000000E-01  2.49000000000E-01

   8   8   1    8 O     2.49000000000E-01  2.49000000000E-01 -2.47000000000E-01

   9   9   1    8 O    -2.47000000000E-01  2.49000000000E-01  2.49000000000E-01

  10  10   1    8 O     2.49000000000E-01 -2.47000000000E-01  2.49000000000E-01

  11  11   1    8 O    -2.49000000000E-01 -2.49000000000E-01 -2.49000000000E-01

  12  12   1    8 O    -2.49000000000E-01 -2.49000000000E-01  2.47000000000E-01

  13  13   1    8 O    -2.49000000000E-01  2.47000000000E-01 -2.49000000000E-01

  14  14   1    8 O     2.47000000000E-01 -2.49000000000E-01 -2.49000000000E-01

 NUMBER OF SYMMETRY OPERATORS         :    1
 *******************************************************************************
 * GEOMETRY EDITING - INPUT COORDINATES ARE GIVEN IN ANGSTROM         
 *******************************************************************************

 GCALCO - MAX INDICES DIRECT LATTICE VECTOR    14    14    14
 NO.OF VECTORS CREATED 6999 STARS  105 RMAX   116.85617 BOHR

 GEOMETRY FOR WAVE FUNCTION - DIMENSIONALITY OF THE SYSTEM    3
 (NON PERIODIC DIRECTION: LATTICE PARAMETER FORMALLY SET TO 500)
 *******************************************************************************
 LATTICE PARAMETERS (ANGSTROMS AND DEGREES) - BOHR = 0.5291772083 ANGSTROM
 PRIMITIVE CELL - CENTRING CODE 1/0 VOLUME=   141.064033 - DENSITY  5.645 g/cm^3
         A              B              C           ALPHA      BETA       GAMMA 
     5.84310600     5.84310600     5.84310600    60.000000  60.000000  60.000000
 *******************************************************************************
 ATOMS IN THE ASYMMETRIC UNIT   14 - ATOMS IN THE UNIT CELL:   14
     ATOM                 X/A                 Y/B                 Z/C    
 *******************************************************************************
      1 T  30 ZN    1.250000000000E-01  1.250000000000E-01  1.250000000000E-01
      2 T  30 ZN   -1.250000000000E-01 -1.250000000000E-01 -1.250000000000E-01
      3 T 226 FE   -5.000000000000E-01 -5.000000000000E-01 -5.000000000000E-01
      4 T 226 FE   -5.000000000000E-01 -5.000000000000E-01  0.000000000000E+00
      5 T 226 FE    0.000000000000E+00 -5.000000000000E-01 -5.000000000000E-01
      6 T 226 FE   -5.000000000000E-01  5.551115123126E-17 -5.000000000000E-01
      7 T   8 O     2.490000000000E-01  2.490000000000E-01  2.490000000000E-01
      8 T   8 O     2.490000000000E-01  2.490000000000E-01 -2.470000000000E-01
      9 T   8 O    -2.470000000000E-01  2.490000000000E-01  2.490000000000E-01
     10 T   8 O     2.490000000000E-01 -2.470000000000E-01  2.490000000000E-01
     11 T   8 O    -2.490000000000E-01 -2.490000000000E-01 -2.490000000000E-01
     12 T   8 O    -2.490000000000E-01 -2.490000000000E-01  2.470000000000E-01
     13 T   8 O    -2.490000000000E-01  2.470000000000E-01 -2.490000000000E-01
     14 T   8 O     2.470000000000E-01 -2.490000000000E-01 -2.490000000000E-01

 T = ATOM BELONGING TO THE ASYMMETRIC UNIT

 ****    1 SYMMOPS - TRANSLATORS IN FRACTIONAL UNITS
 **** MATRICES AND TRANSLATORS IN THE CRYSTALLOGRAPHIC REFERENCE FRAME
   V INV                    ROTATION MATRICES                   TRANSLATORS
   1   1  1.00  0.00  0.00  0.00  1.00  0.00  0.00  0.00  1.00  0.00  0.00  0.00

 DIRECT LATTICE VECTORS CARTESIAN COMPONENTS (ANGSTROM)
          X                    Y                    Z
   0.506027823301E+01   0.292155300000E+01   0.000000000000E+00
   0.000000000000E+00   0.584310600000E+01   0.000000000000E+00
   0.168675941100E+01   0.292155300000E+01   0.477087607100E+01


 CARTESIAN COORDINATES - PRIMITIVE CELL
 *******************************************************************************
 *      ATOM          X(ANGSTROM)         Y(ANGSTROM)         Z(ANGSTROM)
 *******************************************************************************
    1    30 ZN    8.433797055009E-01  1.460776500000E+00  5.963595088748E-01
    2    30 ZN   -8.433797055009E-01 -1.460776500000E+00 -5.963595088748E-01
    3   226 FE    3.373518822004E+00  5.843106000000E+00  2.385438035499E+00
    4   226 FE    2.530139116503E+00  4.382329500000E+00  0.000000000000E+00
    5   226 FE    8.433797055009E-01  4.382329500000E+00  2.385438035499E+00
    6   226 FE    3.373518822004E+00  2.921553000000E+00  2.385438035499E+00
    7     8 O     1.680012373358E+00  2.909866788000E+00  1.187948141679E+00
    8     8 O     8.433797055009E-01  1.460776500000E+00 -1.178406389537E+00
    9     8 O    -8.298856302129E-01  1.460776500000E+00  1.187948141679E+00
   10     8 O     1.680012373358E+00  1.168621200000E-02  1.187948141679E+00
   11     8 O    -1.680012373358E+00 -2.909866788000E+00 -1.187948141679E+00
   12     8 O    -8.433797055009E-01 -1.460776500000E+00  1.178406389537E+00
   13     8 O    -1.680012373358E+00 -1.168621200000E-02 -1.187948141679E+00
   14     8 O     8.298856302129E-01 -1.460776500000E+00 -1.187948141679E+00

 *******************************************************************************
 *** PSEUDOPOTENTIAL INFORMATION ***
 *******************************************************************************

 ATOMIC NUMBER  26, NUCLEAR CHARGE 16.000, GIVEN IN INPUT       PSEUDOPOTENTIAL
   TYPE       EXPONENT      COEFF.    N      EXPONENT      COEFF.    N
  P0 TMS    20.9300000  253.7495880   0     9.4450000   37.9228450   0
  P1 TMS    21.7600000  161.0368120   0     9.1780000   27.6512980   0
  P2 TMS    25.9000000  -24.4312760   0     8.8350000   -1.4342510   0

 *******************************************************************************
 LOCAL ATOMIC FUNCTIONS BASIS SET
 *******************************************************************************
   ATOM   X(AU)   Y(AU)   Z(AU)  N. TYPE  EXPONENT  S COEF   P COEF   D/F/G COEF
 *******************************************************************************
   1 ZN   1.594   2.760   1.127
                                  1 S  
                                         4.059E+05 2.244E-04 0.000E+00 0.000E+00
                                         6.085E+04 1.740E-03 0.000E+00 0.000E+00
                                         1.385E+04 9.051E-03 0.000E+00 0.000E+00
                                         3.920E+03 3.682E-02 0.000E+00 0.000E+00
                                         1.276E+03 1.200E-01 0.000E+00 0.000E+00
                                         4.587E+02 2.858E-01 0.000E+00 0.000E+00
                                         1.783E+02 4.109E-01 0.000E+00 0.000E+00
                                         7.061E+01 2.182E-01 0.000E+00 0.000E+00
                                  2 S  
                                         4.439E+02-2.493E-02 0.000E+00 0.000E+00
                                         1.376E+02-1.182E-01 0.000E+00 0.000E+00
                                         2.227E+01 5.537E-01 0.000E+00 0.000E+00
                                         9.522E+00 5.263E-01 0.000E+00 0.000E+00
                                  3 S  
                                         1.487E+01-2.293E-01 0.000E+00 0.000E+00
                                         2.465E+00 7.114E-01 0.000E+00 0.000E+00
                                  4 S  
                                         1.011E+00 1.000E+00 0.000E+00 0.000E+00
                                  5 S  
                                         3.230E-01 1.000E+00 0.000E+00 0.000E+00
                                  6 S  
                                         1.017E-01 1.000E+00 0.000E+00 0.000E+00
                           7-     9 P  
                                         2.205E+03 0.000E+00 2.336E-03 0.000E+00
                                         5.224E+02 0.000E+00 1.903E-02 0.000E+00
                                         1.677E+02 0.000E+00 8.996E-02 0.000E+00
                                         6.267E+01 0.000E+00 2.611E-01 0.000E+00
                                         2.511E+01 0.000E+00 4.235E-01 0.000E+00
                                         1.023E+01 0.000E+00 2.462E-01 0.000E+00
                          10-    12 P  
                                         4.071E+01 0.000E+00-3.003E-02 0.000E+00
                                         5.625E+00 0.000E+00 5.558E-01 0.000E+00
                                         2.228E+00 0.000E+00 9.558E-01 0.000E+00
                          13-    15 P  
                                         1.160E+00 0.000E+00 1.000E+00 0.000E+00
                          16-    18 P  
                                         2.625E-01 0.000E+00 1.000E+00 0.000E+00
                          19-    23 D  
                                         8.855E+01 0.000E+00 0.000E+00 1.273E-02
                                         2.572E+01 0.000E+00 0.000E+00 7.939E-02
                                         9.128E+00 0.000E+00 0.000E+00 2.449E-01
                                         3.431E+00 0.000E+00 0.000E+00 4.039E-01
                          24-    28 D  
                                         1.186E+00 0.000E+00 0.000E+00 1.000E+00
                          29-    33 D  
                                         4.309E-01 0.000E+00 0.000E+00 1.000E+00
                          34-    40 F  
                                         2.614E+00 0.000E+00 0.000E+00 1.000E+00
   2 ZN  -1.594  -2.760  -1.127
   3 FE   6.375  11.042   4.508
                                 81 S  
                                         2.126E+01 1.210E-01 0.000E+00 0.000E+00
                                         9.627E+00-4.941E-01 0.000E+00 0.000E+00
                                         4.880E+00-1.945E-01 0.000E+00 0.000E+00
                                         2.217E+00 7.495E-01 0.000E+00 0.000E+00
                                 82 S  
                                         1.007E+00 1.000E+00 0.000E+00 0.000E+00
                                 83 S  
                                         4.043E-01 1.000E+00 0.000E+00 0.000E+00
                          84-    86 P  
                                         5.209E+01 0.000E+00 5.401E-03 0.000E+00
                                         1.294E+01 0.000E+00-1.103E-01 0.000E+00
                                         3.464E+00 0.000E+00 3.936E-01 0.000E+00
                                         1.660E+00 0.000E+00 6.205E-01 0.000E+00
                          87-    89 P  
                                         7.804E-01 0.000E+00 1.000E+00 0.000E+00
                          90-    92 P  
                                         3.443E-01 0.000E+00 1.000E+00 0.000E+00
                          93-    97 D  
                                         5.088E+01 0.000E+00 0.000E+00 1.720E-02
                                         1.644E+01 0.000E+00 0.000E+00 1.077E-01
                                         6.063E+00 0.000E+00 0.000E+00 3.098E-01
                                         2.350E+00 0.000E+00 0.000E+00 4.967E-01
                          98-   102 D  
                                         8.755E-01 0.000E+00 0.000E+00 1.000E+00
                         103-   107 D  
                                         2.700E-01 0.000E+00 0.000E+00 1.000E+00
   4 FE   4.781   8.281   0.000
   5 FE   1.594   8.281   4.508
   6 FE   6.375   5.521   4.508
   7 O    3.175   5.499   2.245
                                189 S  
                                         2.703E+04 2.173E-04 0.000E+00 0.000E+00
                                         4.052E+03 1.684E-03 0.000E+00 0.000E+00
                                         9.223E+02 8.740E-03 0.000E+00 0.000E+00
                                         2.612E+02 3.524E-02 0.000E+00 0.000E+00
                                         8.535E+01 1.115E-01 0.000E+00 0.000E+00
                                         3.104E+01 2.559E-01 0.000E+00 0.000E+00
                                190 S  
                                         1.226E+01 3.977E-01 0.000E+00 0.000E+00
                                         4.999E+00 2.463E-01 0.000E+00 0.000E+00
                                191 S  
                                         1.099E+00 1.000E+00 0.000E+00 0.000E+00
                                192 S  
                                         3.566E-01 1.000E+00 0.000E+00 0.000E+00
                         193-   195 P  
                                         6.327E+01 0.000E+00 6.069E-03 0.000E+00
                                         1.463E+01 0.000E+00 4.191E-02 0.000E+00
                                         4.450E+00 0.000E+00 1.615E-01 0.000E+00
                                         1.528E+00 0.000E+00 3.571E-01 0.000E+00
                         196-   198 P  
                                         5.490E-01 0.000E+00 1.000E+00 0.000E+00
                         199-   201 P  
                                         1.859E-01 0.000E+00 1.000E+00 0.000E+00
                         202-   206 D  
                                         2.535E-01 0.000E+00 0.000E+00 1.000E+00
   8 O    1.594   2.760  -2.227
   9 O   -1.568   2.760   2.245
  10 O    3.175   0.022   2.245
  11 O   -3.175  -5.499  -2.245
  12 O   -1.594  -2.760   2.227
  13 O   -3.175  -0.022  -2.245
  14 O    1.568  -2.760  -2.245
 INFORMATION **** SET_MPP **** PCRYSTAL CALCULATION
 INFORMATION **** READM2 **** NEW DEFAULT: FOCK/KS MATRIX MIXING SET TO 30 %
 INFORMATION **** READM2 **** NEW DEFAULT: FULL DIRECT SCF MODE
 INFORMATION **** READM2 **** NEW DEFAULT: COULOMB BIPOLAR BUFFER SET TO 32 Mb
 INFORMATION **** READM2 **** NEW DEFAULT: EXCHANGE BIPOLAR BUFFER SET TO 32 Mb

 *******************************************************************************
 NEW DEFAULT: DFT INTEGRATION GRID INCREASED TO XLGRID
 NEW DEFAULT: DIIS ACCELERATOR ACTIVE
 USE KEYWORD NODIIS TO TURN IT OFF
 *******************************************************************************

 WARNING **** RDDFTP **** HSE06-HJS ACTIVE
 RANGE SEPARATION - OMEGA:   0.110000000000000     
 INFORMATION **** DFTD3_INPUT **** PERFORM LATEST DISPERSION CORRECTION DFT-D3(BJ) WITH AUTOMATIC PARAMETER SETUP
 PLEASE CITE:
 (1) DFT-D3 Reference
  S. Grimme, J. Antony, S. Ehrlich, and H. Krieg, J. Chem. Phys. 132 (2010), 154104
 (2) BJ-Damping Reference
  S. Grimme, S. Ehrlich, and L. Goerigk, J. Comput. Chem. 32 (2011), 1456-1465
 (3) General DFT-D Review
  S. Grimme, A. Hansen, J. G. Brandenburg, and C. Bannwarth,
  Chem. Rev. 116 (2016), 5105-5154

 SSSSSSSSSSSSSSSSSSSSSSSSSSSSSSSSSSSSSSSSSSSSSSSSSSSSSSSSSSSSSSSSSSSSSSSSSSSSSS
 ATOMIC SPINS SET TO (ATOM, AT. N., SPIN)
   1  30 0   2  30 0   3 226 1   4 226-1   5 226 1   6 226-1   7   8 0   8   8 0
   9   8 0  10   8 0  11   8 0  12   8 0  13   8 0  14   8 0
 INFORMATION **** TOLINTEG **** COULOMB AND EXCHANGE SERIES TOLERANCES MODIFIED
 INFORMATION **** TOLDEE **** SCF TOL ON TOTAL ENERGY SET TO           7
 INFORMATION **** READM2 **** FULL DIRECT SCF (MONO AND BIEL INT) SELECTED
 INFORMATION **** BIPOSIZE **** COULOMB BIPOLAR BUFFER SET TO   110000000
 INFORMATION **** EXCHSIZE **** EXCHANGE BIPOLAR BUFFER SIZE SET TO   110000000
 INFORMATION **** MAXCYCLE **** MAX NUMBER OF SCF CYCLES SET TO         800
 INFORMATION **** PPAN ****  MULLIKEN POPULATION ANALYSIS AT THE END OF SCF
 *******************************************************************************
 N. OF ATOMS PER CELL        14  COULOMB OVERLAP TOL         (T1) 10**   -9
 NUMBER OF SHELLS           128  COULOMB PENETRATION TOL     (T2) 10**   -9
 NUMBER OF AO               332  EXCHANGE OVERLAP TOL        (T3) 10**   -9
 N. OF ELECTRONS PER CELL   188  EXCHANGE PSEUDO OVP (F(G))  (T4) 10**   -9
 CORE ELECTRONS PER CELL     52  EXCHANGE PSEUDO OVP (P(G))  (T5) 10**  -18
 N. OF SYMMETRY OPERATORS     1  POLE ORDER IN MONO ZONE                  4
 *******************************************************************************
 TYPE OF CALCULATION :  UNRESTRICTED OPEN SHELL
 KOHN-SHAM HAMILTONIAN

 (EXCHANGE)[CORRELATION] FUNCTIONAL:(HSE06 SR/GGA)[PERDEW-BURKE-ERNZERHOF]

 RANGE-SEPARATED HYBRID FUNCTIONAL 
 OMEGA (SHORT-RANGE)[LONG-RANGE]:(    0.1100)[    0.0000]

 HYBRID EXCHANGE - PERCENTAGE OF FOCK EXCHANGE    25.0000

 SPIN POLARIZED DFT SELECTED
 CORE  PSEUDO POTENTIAL         TOL. ON PSEUDO              (TP) 10**- 6

 CAPPA:IS1 10;IS2 10;IS3 10; K PTS MONK NET 504; SYMMOPS:K SPACE   2;G SPACE   1

 *******************************************************************************
 MAX NUMBER OF SCF CYCLES     800  CONVERGENCE ON DELTAP        10**-17
 WEIGHT OF F(I) IN F(I+1)      30% CONVERGENCE ON ENERGY        10**- 7
 SHRINK. FACT.(MONKH.)   10 10 10  NUMBER OF K POINTS IN THE IBZ    504
 SHRINKING FACTOR(GILAT NET)   20  NUMBER OF K POINTS(GILAT NET)   4004
 *******************************************************************************
 *** K POINTS COORDINATES (OBLIQUE COORDINATES IN UNITS OF IS = 10)
   1-R(  0  0  0)   2-C(  1  0  0)   3-C(  2  0  0)   4-C(  3  0  0)
   5-C(  4  0  0)   6-R(  5  0  0)   7-C(  0  1  0)   8-C(  1  1  0)
   9-C(  2  1  0)  10-C(  3  1  0)  11-C(  4  1  0)  12-C(  5  1  0)
  13-C(  6  1  0)  14-C(  7  1  0)  15-C(  8  1  0)  16-C(  9  1  0)
  17-C(  0  2  0)  18-C(  1  2  0)  19-C(  2  2  0)  20-C(  3  2  0)
  21-C(  4  2  0)  22-C(  5  2  0)  23-C(  6  2  0)  24-C(  7  2  0)
  25-C(  8  2  0)  26-C(  9  2  0)  27-C(  0  3  0)  28-C(  1  3  0)
  29-C(  2  3  0)  30-C(  3  3  0)  31-C(  4  3  0)  32-C(  5  3  0)
  33-C(  6  3  0)  34-C(  7  3  0)  35-C(  8  3  0)  36-C(  9  3  0)
  37-C(  0  4  0)  38-C(  1  4  0)  39-C(  2  4  0)  40-C(  3  4  0)
  41-C(  4  4  0)  42-C(  5  4  0)  43-C(  6  4  0)  44-C(  7  4  0)
  45-C(  8  4  0)  46-C(  9  4  0)  47-R(  0  5  0)  48-C(  1  5  0)
  49-C(  2  5  0)  50-C(  3  5  0)  51-C(  4  5  0)  52-R(  5  5  0)
  53-C(  0  0  1)  54-C(  1  0  1)  55-C(  2  0  1)  56-C(  3  0  1)
  57-C(  4  0  1)  58-C(  5  0  1)  59-C(  6  0  1)  60-C(  7  0  1)
  61-C(  8  0  1)  62-C(  9  0  1)  63-C(  0  1  1)  64-C(  1  1  1)
  65-C(  2  1  1)  66-C(  3  1  1)  67-C(  4  1  1)  68-C(  5  1  1)
  69-C(  6  1  1)  70-C(  7  1  1)  71-C(  8  1  1)  72-C(  9  1  1)
  73-C(  0  2  1)  74-C(  1  2  1)  75-C(  2  2  1)  76-C(  3  2  1)
  77-C(  4  2  1)  78-C(  5  2  1)  79-C(  6  2  1)  80-C(  7  2  1)
  81-C(  8  2  1)  82-C(  9  2  1)  83-C(  0  3  1)  84-C(  1  3  1)
  85-C(  2  3  1)  86-C(  3  3  1)  87-C(  4  3  1)  88-C(  5  3  1)
  89-C(  6  3  1)  90-C(  7  3  1)  91-C(  8  3  1)  92-C(  9  3  1)
  93-C(  0  4  1)  94-C(  1  4  1)  95-C(  2  4  1)  96-C(  3  4  1)
  97-C(  4  4  1)  98-C(  5  4  1)  99-C(  6  4  1) 100-C(  7  4  1)
 101-C(  8  4  1) 102-C(  9  4  1) 103-C(  0  5  1) 104-C(  1  5  1)
 105-C(  2  5  1) 106-C(  3  5  1) 107-C(  4  5  1) 108-C(  5  5  1)
 109-C(  6  5  1) 110-C(  7  5  1) 111-C(  8  5  1) 112-C(  9  5  1)
 113-C(  0  6  1) 114-C(  1  6  1) 115-C(  2  6  1) 116-C(  3  6  1)
 117-C(  4  6  1) 118-C(  5  6  1) 119-C(  6  6  1) 120-C(  7  6  1)
 121-C(  8  6  1) 122-C(  9  6  1) 123-C(  0  7  1) 124-C(  1  7  1)
 125-C(  2  7  1) 126-C(  3  7  1) 127-C(  4  7  1) 128-C(  5  7  1)
 129-C(  6  7  1) 130-C(  7  7  1) 131-C(  8  7  1) 132-C(  9  7  1)
 133-C(  0  8  1) 134-C(  1  8  1) 135-C(  2  8  1) 136-C(  3  8  1)
 137-C(  4  8  1) 138-C(  5  8  1) 139-C(  6  8  1) 140-C(  7  8  1)
 141-C(  8  8  1) 142-C(  9  8  1) 143-C(  0  9  1) 144-C(  1  9  1)
 145-C(  2  9  1) 146-C(  3  9  1) 147-C(  4  9  1) 148-C(  5  9  1)
 149-C(  6  9  1) 150-C(  7  9  1) 151-C(  8  9  1) 152-C(  9  9  1)
 153-C(  0  0  2) 154-C(  1  0  2) 155-C(  2  0  2) 156-C(  3  0  2)
 157-C(  4  0  2) 158-C(  5  0  2) 159-C(  6  0  2) 160-C(  7  0  2)
 161-C(  8  0  2) 162-C(  9  0  2) 163-C(  0  1  2) 164-C(  1  1  2)
 165-C(  2  1  2) 166-C(  3  1  2) 167-C(  4  1  2) 168-C(  5  1  2)
 169-C(  6  1  2) 170-C(  7  1  2) 171-C(  8  1  2) 172-C(  9  1  2)
 173-C(  0  2  2) 174-C(  1  2  2) 175-C(  2  2  2) 176-C(  3  2  2)
 177-C(  4  2  2) 178-C(  5  2  2) 179-C(  6  2  2) 180-C(  7  2  2)
 181-C(  8  2  2) 182-C(  9  2  2) 183-C(  0  3  2) 184-C(  1  3  2)
 185-C(  2  3  2) 186-C(  3  3  2) 187-C(  4  3  2) 188-C(  5  3  2)
 189-C(  6  3  2) 190-C(  7  3  2) 191-C(  8  3  2) 192-C(  9  3  2)
 193-C(  0  4  2) 194-C(  1  4  2) 195-C(  2  4  2) 196-C(  3  4  2)
 197-C(  4  4  2) 198-C(  5  4  2) 199-C(  6  4  2) 200-C(  7  4  2)
 201-C(  8  4  2) 202-C(  9  4  2) 203-C(  0  5  2) 204-C(  1  5  2)
 205-C(  2  5  2) 206-C(  3  5  2) 207-C(  4  5  2) 208-C(  5  5  2)
 209-C(  6  5  2) 210-C(  7  5  2) 211-C(  8  5  2) 212-C(  9  5  2)
 213-C(  0  6  2) 214-C(  1  6  2) 215-C(  2  6  2) 216-C(  3  6  2)
 217-C(  4  6  2) 218-C(  5  6  2) 219-C(  6  6  2) 220-C(  7  6  2)
 221-C(  8  6  2) 222-C(  9  6  2) 223-C(  0  7  2) 224-C(  1  7  2)
 225-C(  2  7  2) 226-C(  3  7  2) 227-C(  4  7  2) 228-C(  5  7  2)
 229-C(  6  7  2) 230-C(  7  7  2) 231-C(  8  7  2) 232-C(  9  7  2)
 233-C(  0  8  2) 234-C(  1  8  2) 235-C(  2  8  2) 236-C(  3  8  2)
 237-C(  4  8  2) 238-C(  5  8  2) 239-C(  6  8  2) 240-C(  7  8  2)
 241-C(  8  8  2) 242-C(  9  8  2) 243-C(  0  9  2) 244-C(  1  9  2)
 245-C(  2  9  2) 246-C(  3  9  2) 247-C(  4  9  2) 248-C(  5  9  2)
 249-C(  6  9  2) 250-C(  7  9  2) 251-C(  8  9  2) 252-C(  9  9  2)
 253-C(  0  0  3) 254-C(  1  0  3) 255-C(  2  0  3) 256-C(  3  0  3)
 257-C(  4  0  3) 258-C(  5  0  3) 259-C(  6  0  3) 260-C(  7  0  3)
 261-C(  8  0  3) 262-C(  9  0  3) 263-C(  0  1  3) 264-C(  1  1  3)
 265-C(  2  1  3) 266-C(  3  1  3) 267-C(  4  1  3) 268-C(  5  1  3)
 269-C(  6  1  3) 270-C(  7  1  3) 271-C(  8  1  3) 272-C(  9  1  3)
 273-C(  0  2  3) 274-C(  1  2  3) 275-C(  2  2  3) 276-C(  3  2  3)
 277-C(  4  2  3) 278-C(  5  2  3) 279-C(  6  2  3) 280-C(  7  2  3)
 281-C(  8  2  3) 282-C(  9  2  3) 283-C(  0  3  3) 284-C(  1  3  3)
 285-C(  2  3  3) 286-C(  3  3  3) 287-C(  4  3  3) 288-C(  5  3  3)
 289-C(  6  3  3) 290-C(  7  3  3) 291-C(  8  3  3) 292-C(  9  3  3)
 293-C(  0  4  3) 294-C(  1  4  3) 295-C(  2  4  3) 296-C(  3  4  3)
 297-C(  4  4  3) 298-C(  5  4  3) 299-C(  6  4  3) 300-C(  7  4  3)
 301-C(  8  4  3) 302-C(  9  4  3) 303-C(  0  5  3) 304-C(  1  5  3)
 305-C(  2  5  3) 306-C(  3  5  3) 307-C(  4  5  3) 308-C(  5  5  3)
 309-C(  6  5  3) 310-C(  7  5  3) 311-C(  8  5  3) 312-C(  9  5  3)
 313-C(  0  6  3) 314-C(  1  6  3) 315-C(  2  6  3) 316-C(  3  6  3)
 317-C(  4  6  3) 318-C(  5  6  3) 319-C(  6  6  3) 320-C(  7  6  3)
 321-C(  8  6  3) 322-C(  9  6  3) 323-C(  0  7  3) 324-C(  1  7  3)
 325-C(  2  7  3) 326-C(  3  7  3) 327-C(  4  7  3) 328-C(  5  7  3)
 329-C(  6  7  3) 330-C(  7  7  3) 331-C(  8  7  3) 332-C(  9  7  3)
 333-C(  0  8  3) 334-C(  1  8  3) 335-C(  2  8  3) 336-C(  3  8  3)
 337-C(  4  8  3) 338-C(  5  8  3) 339-C(  6  8  3) 340-C(  7  8  3)
 341-C(  8  8  3) 342-C(  9  8  3) 343-C(  0  9  3) 344-C(  1  9  3)
 345-C(  2  9  3) 346-C(  3  9  3) 347-C(  4  9  3) 348-C(  5  9  3)
 349-C(  6  9  3) 350-C(  7  9  3) 351-C(  8  9  3) 352-C(  9  9  3)
 353-C(  0  0  4) 354-C(  1  0  4) 355-C(  2  0  4) 356-C(  3  0  4)
 357-C(  4  0  4) 358-C(  5  0  4) 359-C(  6  0  4) 360-C(  7  0  4)
 361-C(  8  0  4) 362-C(  9  0  4) 363-C(  0  1  4) 364-C(  1  1  4)
 365-C(  2  1  4) 366-C(  3  1  4) 367-C(  4  1  4) 368-C(  5  1  4)
 369-C(  6  1  4) 370-C(  7  1  4) 371-C(  8  1  4) 372-C(  9  1  4)
 373-C(  0  2  4) 374-C(  1  2  4) 375-C(  2  2  4) 376-C(  3  2  4)
 377-C(  4  2  4) 378-C(  5  2  4) 379-C(  6  2  4) 380-C(  7  2  4)
 381-C(  8  2  4) 382-C(  9  2  4) 383-C(  0  3  4) 384-C(  1  3  4)
 385-C(  2  3  4) 386-C(  3  3  4) 387-C(  4  3  4) 388-C(  5  3  4)
 389-C(  6  3  4) 390-C(  7  3  4) 391-C(  8  3  4) 392-C(  9  3  4)
 393-C(  0  4  4) 394-C(  1  4  4) 395-C(  2  4  4) 396-C(  3  4  4)
 397-C(  4  4  4) 398-C(  5  4  4) 399-C(  6  4  4) 400-C(  7  4  4)
 401-C(  8  4  4) 402-C(  9  4  4) 403-C(  0  5  4) 404-C(  1  5  4)
 405-C(  2  5  4) 406-C(  3  5  4) 407-C(  4  5  4) 408-C(  5  5  4)
 409-C(  6  5  4) 410-C(  7  5  4) 411-C(  8  5  4) 412-C(  9  5  4)
 413-C(  0  6  4) 414-C(  1  6  4) 415-C(  2  6  4) 416-C(  3  6  4)
 417-C(  4  6  4) 418-C(  5  6  4) 419-C(  6  6  4) 420-C(  7  6  4)
 421-C(  8  6  4) 422-C(  9  6  4) 423-C(  0  7  4) 424-C(  1  7  4)
 425-C(  2  7  4) 426-C(  3  7  4) 427-C(  4  7  4) 428-C(  5  7  4)
 429-C(  6  7  4) 430-C(  7  7  4) 431-C(  8  7  4) 432-C(  9  7  4)
 433-C(  0  8  4) 434-C(  1  8  4) 435-C(  2  8  4) 436-C(  3  8  4)
 437-C(  4  8  4) 438-C(  5  8  4) 439-C(  6  8  4) 440-C(  7  8  4)
 441-C(  8  8  4) 442-C(  9  8  4) 443-C(  0  9  4) 444-C(  1  9  4)
 445-C(  2  9  4) 446-C(  3  9  4) 447-C(  4  9  4) 448-C(  5  9  4)
 449-C(  6  9  4) 450-C(  7  9  4) 451-C(  8  9  4) 452-C(  9  9  4)
 453-R(  0  0  5) 454-C(  1  0  5) 455-C(  2  0  5) 456-C(  3  0  5)
 457-C(  4  0  5) 458-R(  5  0  5) 459-C(  0  1  5) 460-C(  1  1  5)
 461-C(  2  1  5) 462-C(  3  1  5) 463-C(  4  1  5) 464-C(  5  1  5)
 465-C(  6  1  5) 466-C(  7  1  5) 467-C(  8  1  5) 468-C(  9  1  5)
 469-C(  0  2  5) 470-C(  1  2  5) 471-C(  2  2  5) 472-C(  3  2  5)
 473-C(  4  2  5) 474-C(  5  2  5) 475-C(  6  2  5) 476-C(  7  2  5)
 477-C(  8  2  5) 478-C(  9  2  5) 479-C(  0  3  5) 480-C(  1  3  5)
 481-C(  2  3  5) 482-C(  3  3  5) 483-C(  4  3  5) 484-C(  5  3  5)
 485-C(  6  3  5) 486-C(  7  3  5) 487-C(  8  3  5) 488-C(  9  3  5)
 489-C(  0  4  5) 490-C(  1  4  5) 491-C(  2  4  5) 492-C(  3  4  5)
 493-C(  4  4  5) 494-C(  5  4  5) 495-C(  6  4  5) 496-C(  7  4  5)
 497-C(  8  4  5) 498-C(  9  4  5) 499-R(  0  5  5) 500-C(  1  5  5)
 501-C(  2  5  5) 502-C(  3  5  5) 503-C(  4  5  5) 504-R(  5  5  5)

 DIRECT LATTICE VECTORS COMPON. (A.U.)     RECIP. LATTICE VECTORS COMPON. (A.U.) 
        X            Y            Z              X            Y            Z
    9.5625400    5.5209351    0.0000000      0.6570624    0.0000000   -0.2323066
    0.0000000   11.0418701    0.0000000     -0.3285312    0.5690327   -0.2323066
    3.1875133    5.5209351    9.0156492      0.0000000    0.0000000    0.6969199

 DISK SPACE FOR EIGENVECTORS (FTN 10)   110224000 REALS

 SYMMETRY ADAPTION OF THE BLOCH FUNCTIONS DISABLED
 TTTTTTTTTTTTTTTTTTTTTTTTTTTTTT gordsh1     TELAPSE        1.89 TCPU        0.36

 MATRIX SIZE: P(G) 1148016, F(G)  198536, P(G) IRR  580106, F(G) IRR  200770
 MAX G-VECTOR INDEX FOR 1- AND 2-ELECTRON INTEGRALS 247

 TTTTTTTTTTTTTTTTTTTTTTTTTTTTTT INPUT       TELAPSE        2.14 TCPU        0.61

 NEIGHBORS OF THE NON-EQUIVALENT ATOMS

 N = NUMBER OF NEIGHBORS AT DISTANCE R
    ATOM  N     R/ANG      R/AU   NEIGHBORS (ATOM LABELS AND CELL INDICES)
   1 ZN   4     1.7748     3.3538    7 O    0 0 0    8 O    0 0 0    9 O    0 0 0
                                    10 O    0 0 0
   1 ZN  12     3.4234     6.4692   11 O    1 0 0   11 O    0 1 0   11 O    0 0 1
                                    12 O    0 0 0   12 O    1 0 0   12 O    0 1 0
                                    13 O    0 0 0   13 O    1 0 0   13 O    0 0 1
                                    14 O    0 0 0   14 O    0 1 0   14 O    0 0 1
   1 ZN  12     3.4258     6.4739    3 FE  -1 0 0    3 FE   0-1 0    3 FE   0 0-1
                                     4 FE   0 0 0    4 FE  -1 0 0    4 FE   0-1 0
                                     5 FE   0 0 0    5 FE   0-1 0    5 FE   0 0-1
                                     6 FE   0 0 0    6 FE  -1 0 0    6 FE   0 0-1
   1 ZN   4     3.5782     6.7617    2 ZN   0 0 0    2 ZN   1 0 0    2 ZN   0 1 0
                                     2 ZN   0 0 1
   1 ZN  12     4.5119     8.5263    7 O   -1 0 0    7 O    0-1 0    7 O    0 0-1
                                     8 O   -1 0 1    8 O    0-1 1    8 O    0 0 1
                                     9 O    1 0 0    9 O    1 0-1    9 O    1-1 0
                                    10 O   -1 1 0   10 O    0 1 0   10 O    0 1-1
   1 ZN   4     5.3529    10.1156   11 O    0 0 0   12 O    0 0 1   13 O    0 1 0
                                    14 O    1 0 0

   2 ZN   4     1.7748     3.3538   11 O    0 0 0   12 O    0 0 0   13 O    0 0 0
                                    14 O    0 0 0
   2 ZN  12     3.4234     6.4692    7 O   -1 0 0    7 O    0-1 0    7 O    0 0-1
                                     8 O    0 0 0    8 O   -1 0 0    8 O    0-1 0
                                     9 O    0 0 0    9 O    0-1 0    9 O    0 0-1
                                    10 O    0 0 0   10 O   -1 0 0   10 O    0 0-1
   2 ZN  12     3.4258     6.4739    3 FE  -1-1 0    3 FE  -1 0-1    3 FE   0-1-1
                                     4 FE  -1 0 0    4 FE   0-1 0    4 FE  -1-1 0
                                     5 FE   0-1 0    5 FE   0 0-1    5 FE   0-1-1
                                     6 FE  -1 0 0    6 FE   0 0-1    6 FE  -1 0-1
   2 ZN   4     3.5782     6.7617    1 ZN   0 0 0    1 ZN  -1 0 0    1 ZN   0-1 0
                                     1 ZN   0 0-1
   2 ZN  12     4.5119     8.5263   11 O    1 0 0   11 O    0 1 0   11 O    0 0 1
                                    12 O    1 0-1   12 O    0 1-1   12 O    0 0-1
                                    13 O    1-1 0   13 O    0-1 0   13 O    0-1 1
                                    14 O   -1 0 0   14 O   -1 0 1   14 O   -1 1 0
   2 ZN   4     5.3529    10.1156    7 O    0 0 0    8 O    0 0-1    9 O   -1 0 0
                                    10 O    0-1 0

   3 FE   6     2.0741     3.9196    8 O    0 0 1    9 O    1 0 0   10 O    0 1 0
                                    12 O    1 1 0   13 O    1 0 1   14 O    0 1 1
   3 FE   6     2.9216     5.5209    4 FE   0 0 0    4 FE   0 0 1    5 FE   0 0 0
                                     5 FE   1 0 0    6 FE   0 0 0    6 FE   0 1 0
   3 FE   6     3.4258     6.4739    1 ZN   1 0 0    1 ZN   0 1 0    1 ZN   0 0 1
                                     2 ZN   1 1 0    2 ZN   1 0 1    2 ZN   0 1 1
   3 FE   6     3.5734     6.7528    7 O    1 0 0    7 O    0 1 0    7 O    0 0 1
                                    11 O    1 1 0   11 O    1 0 1   11 O    0 1 1
   3 FE   2     3.5925     6.7888    7 O    0 0 0   11 O    1 1 1
   3 FE  12     4.6083     8.7084    8 O    1 0 0    8 O    0 1 0    9 O    0 1 0
                                     9 O    0 0 1   10 O    1 0 0   10 O    0 0 1
                                    12 O    1 0 1   12 O    0 1 1   13 O    1 1 0
                                    13 O    0 1 1   14 O    1 1 0   14 O    1 0 1

   4 FE   6     2.0741     3.9196    7 O    0 0 0    9 O    1 0 0   10 O    0 1 0
                                    11 O    1 1 0   13 O    1 0 0   14 O    0 1 0
   4 FE   6     2.9216     5.5209    3 FE   0 0 0    3 FE   0 0-1    5 FE   0 0 0
                                     5 FE   1 0-1    6 FE   0 0 0    6 FE   0 1-1
   4 FE   6     3.4258     6.4739    1 ZN   0 0 0    1 ZN   1 0 0    1 ZN   0 1 0
                                     2 ZN   1 0 0    2 ZN   0 1 0    2 ZN   1 1 0
   4 FE   6     3.5734     6.7528    8 O    0 0 0    8 O    1 0 0    8 O    0 1 0
                                    12 O    1 0 0   12 O    0 1 0   12 O    1 1 0
   4 FE   2     3.5925     6.7888    8 O    0 0 1   12 O    1 1-1
   4 FE  12     4.6083     8.7084    7 O    1 0 0    7 O    0 1 0    9 O    0 0 0
                                     9 O    0 1 0   10 O    0 0 0   10 O    1 0 0
                                    11 O    1 0 0   11 O    0 1 0   13 O    0 1 0
                                    13 O    1 1 0   14 O    1 0 0   14 O    1 1 0

   5 FE   6     2.0741     3.9196    7 O    0 0 0    8 O    0 0 1   10 O    0 1 0
                                    11 O    0 1 1   12 O    0 1 0   13 O    0 0 1
   5 FE   6     2.9216     5.5209    3 FE   0 0 0    3 FE  -1 0 0    4 FE   0 0 0
                                     4 FE  -1 0 1    6 FE   0 0 0    6 FE  -1 1 0
   5 FE   6     3.4258     6.4739    1 ZN   0 0 0    1 ZN   0 1 0    1 ZN   0 0 1
                                     2 ZN   0 1 0    2 ZN   0 0 1    2 ZN   0 1 1
   5 FE   6     3.5734     6.7528    9 O    0 0 0    9 O    0 1 0    9 O    0 0 1
                                    14 O    0 1 0   14 O    0 0 1   14 O    0 1 1
   5 FE   2     3.5925     6.7888    9 O    1 0 0   14 O   -1 1 1
   5 FE  12     4.6083     8.7084    7 O    0 1 0    7 O    0 0 1    8 O    0 0 0
                                     8 O    0 1 0   10 O    0 0 0   10 O    0 0 1
                                    11 O    0 1 0   11 O    0 0 1   12 O    0 0 1
                                    12 O    0 1 1   13 O    0 1 0   13 O    0 1 1

   6 FE   6     2.0741     3.9196    7 O    0 0 0    8 O    0 0 1    9 O    1 0 0
                                    11 O    1 0 1   12 O    1 0 0   14 O    0 0 1
   6 FE   6     2.9216     5.5209    3 FE   0 0 0    3 FE   0-1 0    4 FE   0 0 0
                                     4 FE   0-1 1    5 FE   0 0 0    5 FE   1-1 0
   6 FE   6     3.4258     6.4739    1 ZN   0 0 0    1 ZN   1 0 0    1 ZN   0 0 1
                                     2 ZN   1 0 0    2 ZN   0 0 1    2 ZN   1 0 1
   6 FE   6     3.5734     6.7528   10 O    0 0 0   10 O    1 0 0   10 O    0 0 1
                                    13 O    1 0 0   13 O    0 0 1   13 O    1 0 1
   6 FE   2     3.5925     6.7888   10 O    0 1 0   13 O    1-1 1
   6 FE  12     4.6083     8.7084    7 O    1 0 0    7 O    0 0 1    8 O    0 0 0
                                     8 O    1 0 0    9 O    0 0 0    9 O    0 0 1
                                    11 O    1 0 0   11 O    0 0 1   12 O    0 0 1
                                    12 O    1 0 1   14 O    1 0 0   14 O    1 0 1

   7 O    1     1.7748     3.3538    1 ZN   0 0 0
   7 O    3     2.0741     3.9196    4 FE   0 0 0    5 FE   0 0 0    6 FE   0 0 0
   7 O    3     2.8982     5.4768    8 O    0 0 0    9 O    0 0 0   10 O    0 0 0
   7 O    6     2.9216     5.5210   12 O    1 0 0   12 O    0 1 0   13 O    1 0 0
                                    13 O    0 0 1   14 O    0 1 0   14 O    0 0 1
   7 O    3     2.9449     5.5651    8 O    0 0 1    9 O    1 0 0   10 O    0 1 0
   7 O    3     3.4234     6.4692    2 ZN   1 0 0    2 ZN   0 1 0    2 ZN   0 0 1

   8 O    1     1.7748     3.3538    1 ZN   0 0 0
   8 O    3     2.0741     3.9196    3 FE   0 0-1    5 FE   0 0-1    6 FE   0 0-1
   8 O    3     2.8982     5.4768    7 O    0 0 0    9 O    0 0 0   10 O    0 0 0
   8 O    6     2.9216     5.5210   11 O    1 0 0   11 O    0 1 0   13 O    0 0 0
                                    13 O    1 0 0   14 O    0 0 0   14 O    0 1 0
   8 O    3     2.9449     5.5651    7 O    0 0-1    9 O    1 0-1   10 O    0 1-1
   8 O    3     3.4234     6.4692    2 ZN   0 0 0    2 ZN   1 0 0    2 ZN   0 1 0

   9 O    1     1.7748     3.3538    1 ZN   0 0 0
   9 O    3     2.0741     3.9196    3 FE  -1 0 0    4 FE  -1 0 0    6 FE  -1 0 0
   9 O    3     2.8982     5.4768    7 O    0 0 0    8 O    0 0 0   10 O    0 0 0
   9 O    6     2.9216     5.5210   11 O    0 1 0   11 O    0 0 1   12 O    0 0 0
                                    12 O    0 1 0   13 O    0 0 0   13 O    0 0 1
   9 O    3     2.9449     5.5651    7 O   -1 0 0    8 O   -1 0 1   10 O   -1 1 0
   9 O    3     3.4234     6.4692    2 ZN   0 0 0    2 ZN   0 1 0    2 ZN   0 0 1

  10 O    1     1.7748     3.3538    1 ZN   0 0 0
  10 O    3     2.0741     3.9196    3 FE   0-1 0    4 FE   0-1 0    5 FE   0-1 0
  10 O    3     2.8982     5.4768    7 O    0 0 0    8 O    0 0 0    9 O    0 0 0
  10 O    6     2.9216     5.5210   11 O    1 0 0   11 O    0 0 1   12 O    0 0 0
                                    12 O    1 0 0   14 O    0 0 0   14 O    0 0 1
  10 O    3     2.9449     5.5651    7 O    0-1 0    8 O    0-1 1    9 O    1-1 0
  10 O    3     3.4234     6.4692    2 ZN   0 0 0    2 ZN   1 0 0    2 ZN   0 0 1

  11 O    1     1.7748     3.3538    2 ZN   0 0 0
  11 O    3     2.0741     3.9196    4 FE  -1-1 0    5 FE   0-1-1    6 FE  -1 0-1
  11 O    3     2.8982     5.4768   12 O    0 0 0   13 O    0 0 0   14 O    0 0 0
  11 O    6     2.9216     5.5210    8 O   -1 0 0    8 O    0-1 0    9 O    0-1 0
                                     9 O    0 0-1   10 O   -1 0 0   10 O    0 0-1
  11 O    3     2.9449     5.5651   12 O    0 0-1   13 O    0-1 0   14 O   -1 0 0
  11 O    3     3.4234     6.4692    1 ZN  -1 0 0    1 ZN   0-1 0    1 ZN   0 0-1

  12 O    1     1.7748     3.3538    2 ZN   0 0 0
  12 O    3     2.0741     3.9196    3 FE  -1-1 0    5 FE   0-1 0    6 FE  -1 0 0
  12 O    3     2.8982     5.4768   11 O    0 0 0   13 O    0 0 0   14 O    0 0 0
  12 O    6     2.9216     5.5210    7 O   -1 0 0    7 O    0-1 0    9 O    0 0 0
                                     9 O    0-1 0   10 O    0 0 0   10 O   -1 0 0
  12 O    3     2.9449     5.5651   11 O    0 0 1   13 O    0-1 1   14 O   -1 0 1
  12 O    3     3.4234     6.4692    1 ZN   0 0 0    1 ZN  -1 0 0    1 ZN   0-1 0

  13 O    1     1.7748     3.3538    2 ZN   0 0 0
  13 O    3     2.0741     3.9196    3 FE  -1 0-1    4 FE  -1 0 0    5 FE   0 0-1
  13 O    3     2.8982     5.4768   11 O    0 0 0   12 O    0 0 0   14 O    0 0 0
  13 O    6     2.9216     5.5210    7 O   -1 0 0    7 O    0 0-1    8 O    0 0 0
                                     8 O   -1 0 0    9 O    0 0 0    9 O    0 0-1
  13 O    3     2.9449     5.5651   11 O    0 1 0   12 O    0 1-1   14 O   -1 1 0
  13 O    3     3.4234     6.4692    1 ZN   0 0 0    1 ZN  -1 0 0    1 ZN   0 0-1

  14 O    1     1.7748     3.3538    2 ZN   0 0 0
  14 O    3     2.0741     3.9196    3 FE   0-1-1    4 FE   0-1 0    6 FE   0 0-1
  14 O    3     2.8982     5.4768   11 O    0 0 0   12 O    0 0 0   13 O    0 0 0
  14 O    6     2.9216     5.5210    7 O    0-1 0    7 O    0 0-1    8 O    0 0 0
                                     8 O    0-1 0   10 O    0 0 0   10 O    0 0-1
  14 O    3     2.9449     5.5651   11 O    1 0 0   12 O    1 0-1   13 O    1-1 0
  14 O    3     3.4234     6.4692    1 ZN   0 0 0    1 ZN   0-1 0    1 ZN   0 0-1


 SYMMETRY ALLOWED INTERNAL DEGREE(S) OF FREEDOM:  39
 TTTTTTTTTTTTTTTTTTTTTTTTTTTTTT SYMM        TELAPSE        2.20 TCPU        0.67
 TTTTTTTTTTTTTTTTTTTTTTTTTTTTTT INT_SCREEN  TELAPSE        2.21 TCPU        0.68

 DFT PARAMETERS

     ATOM       ELECTRONS   NET CHARGE   R(ANGSTROM)
   1  30  ZN     30.0000      0.0000     1.37000000
   3 226  FE     16.0000      0.0000     1.26000000
   7   8  O       8.0000      0.0000     0.74000000

 SIZE OF GRID=     657978
 TTTTTTTTTTTTTTTTTTTTTTTTTTTTTT MAKE_GRID2  TELAPSE        5.98 TCPU        4.37
 BECKE WEIGHT FUNCTION
 RADSAFE =     2.00
 TOLERANCES - DENSITY:10**- 6; POTENTIAL:10**- 9; GRID WGT:10**-14

 RADIAL INTEGRATION  - INTERVALS (POINTS,UPPER LIMIT):            1( 99,  4.0*R)

 ANGULAR INTEGRATION - INTERVALS (ACCURACY LEVEL [N. POINTS] UPPER LIMIT):
  1(  6[ 146]   0.2)  2( 11[ 302]   0.5)  3( 14[ 590]   0.9)  4( 18[1454]   3.5)
  5( 14[ 590]9999.0)
 TTTTTTTTTTTTTTTTTTTTTTTTTTTTTT INT_CALC    TELAPSE        6.03 TCPU        4.42
 EEEEEEEEEE INT_CALC TERMINATION  DATE 14 05 2022 TIME 13:47:00.4

 *******************************************************************************
 ZnFeO4_findsym_BULK                                                             
 CRYSTAL - SCF - TYPE OF CALCULATION :  UNRESTRICTED OPEN SHELL
 *******************************************************************************

 CAPPA:IS1 10;IS2 10;IS3 10; K PTS MONK NET 504; SYMMOPS:K SPACE   2;G SPACE   1

 TTTTTTTTTTTTTTTTTTTTTTTTTTTTTT SDIK        TELAPSE        8.18 TCPU        5.61

 AAAAAAAAAAAAAAAAAAAAAAAAAAAAAAAAAAAAAAAAAAAAAAAAAAAAAAAAAAAAAAAAAAAAAAAAAAAAAAA
         ATOMIC WAVEFUNCTION(S)


 NUCLEAR CHARGE 30.0  SYMMETRY SPECIES            S    P    D
 N. ELECTRONS   30.0  NUMBER OF PRIMITIVE GTOS   17   11    6
                      NUMBER OF CONTRACTED GTOS   6    4    3
                      NUMBER OF CLOSED SHELLS     4    2    1
                      OPEN SHELL OCCUPATION       0    0    0

  ZNUC SCFIT  TOTAL HF ENERGY   KINETIC ENERGY   VIRIAL THEOREM ACCURACY
  30.0  16   -1.777737265E+03  1.776817701E+03 -2.000517534E+00  3.5E-06

 NUCLEAR CHARGE 16.0  SYMMETRY SPECIES            S    P    D
 N. ELECTRONS   16.0  NUMBER OF PRIMITIVE GTOS    6    6    6
                      NUMBER OF CONTRACTED GTOS   3    3    3
                      NUMBER OF CLOSED SHELLS     2    1    0
                      OPEN SHELL OCCUPATION       0    0    6

  ZNUC SCFIT  TOTAL HF ENERGY   KINETIC ENERGY   VIRIAL THEOREM ACCURACY
  16.0  26   -1.220219546E+02  7.270921602E+01 -2.678218543E+00  4.7E-06

 NUCLEAR CHARGE  8.0  SYMMETRY SPECIES            S    P
 N. ELECTRONS    8.0  NUMBER OF PRIMITIVE GTOS   10    6
                      NUMBER OF CONTRACTED GTOS   4    3
                      NUMBER OF CLOSED SHELLS     2    0
                      OPEN SHELL OCCUPATION       0    4

  ZNUC SCFIT  TOTAL HF ENERGY   KINETIC ENERGY   VIRIAL THEOREM ACCURACY
   8.0  13   -7.480300557E+01  7.484348361E+01 -1.999459164E+00  4.9E-06

 AAAAAAAAAAAAAAAAAAAAAAAAAAAAAAAAAAAAAAAAAAAAAAAAAAAAAAAAAAAAAAAAAAAAAAAAAAAAAAA

 CHARGE NORMALIZATION FACTOR   1.00000000
 TOTAL ATOMIC CHARGES:
  30.0000000  30.0000000  16.0000000  16.0000000  16.0000000  16.0000000
   8.0000000   8.0000000   8.0000000   8.0000000   8.0000000   8.0000000
   8.0000000   8.0000000
 SUMMED SPIN DENSITY           0.00000000
 TOTAL ATOMIC SPINS  :
   0.0000000   0.0000000   4.0000000  -4.0000000   4.0000000  -4.0000000
   0.0000000   0.0000000   0.0000000   0.0000000   0.0000000   0.0000000
   0.0000000   0.0000000
 TTTTTTTTTTTTTTTTTTTTTTTTTTTTTT MOQGAD      TELAPSE        8.46 TCPU        5.89
 TTTTTTTTTTTTTTTTTTTTTTTTTTTTTT SHELLXN     TELAPSE      335.31 TCPU      330.71
 TTTTTTTTTTTTTTTTTTTTTTTTTTTTTT MONMO3      TELAPSE      397.62 TCPU      392.61
 NUMERICALLY INTEGRATED DENSITY     93.9999903276     93.9999899330
 TTTTTTTTTTTTTTTTTTTTTTTTTTTTTT NUMDFT      TELAPSE      399.54 TCPU      394.50
 CYC   0 ETOT(AU) -4.651436647029E+03 DETOT -4.65E+03 tst  0.00E+00 PX  1.00E+00
 TTTTTTTTTTTTTTTTTTTTTTTTTTTTTT DIIS        TELAPSE      399.72 TCPU      394.68
 TTTTTTTTTTTTTTTTTTTTTTTTTTTTTT FDIK        TELAPSE      421.18 TCPU      415.57
 POSSIBLY CONDUCTING STATE - EFERMI(AU) -2.3962482E-02 (RES. CHARGE  9.61E-11;IT. 12)
 TTTTTTTTTTTTTTTTTTTTTTTTTTTTTT PDIG        TELAPSE      422.46 TCPU      416.85
 CHARGE NORMALIZATION FACTOR   1.00000000
 TOTAL ATOMIC CHARGES:
  28.8475094  28.8475094  13.1948153  13.1944382  13.1948332  13.1944358
   9.6907418   9.6908775   9.6907385   9.6908715   9.6907419   9.6908774
   9.6908716   9.6907385
 SUMMED SPIN DENSITY           0.00059335
 TOTAL ATOMIC SPINS  :
  -0.0000063  -0.0000062   4.7799541  -4.7797072   4.7799719  -4.7797065
  -0.0231925   0.0232184  -0.0231972   0.0232182  -0.0231925   0.0232184
   0.0232181  -0.0231972
 TTTTTTTTTTTTTTTTTTTTTTTTTTTTTT MOQGAD      TELAPSE      422.48 TCPU      416.87
 TTTTTTTTTTTTTTTTTTTTTTTTTTTTTT SHELLXN     TELAPSE      757.18 TCPU      750.88
 TTTTTTTTTTTTTTTTTTTTTTTTTTTTTT MONMO3      TELAPSE      822.19 TCPU      815.73
 NUMERICALLY INTEGRATED DENSITY     94.0002853616     93.9996914868
 TTTTTTTTTTTTTTTTTTTTTTTTTTTTTT NUMDFT      TELAPSE      831.43 TCPU      824.97
 CYC   1 ETOT(AU) -4.652021252988E+03 DETOT -5.85E-01 tst  0.00E+00 PX  1.00E+00
 TTTTTTTTTTTTTTTTTTTTTTTTTTTTTT DIIS        TELAPSE      831.63 TCPU      825.17
 DIIS TEST: 0.42701E+02 AT SCF   CYCLE   1 - MIX   30 %
 TTTTTTTTTTTTTTTTTTTTTTTTTTTTTT FDIK        TELAPSE      839.29 TCPU      832.83
 POSSIBLY CONDUCTING STATE - EFERMI(AU) -9.9318415E-02 (RES. CHARGE  1.71E-13;IT. 14)
 TTTTTTTTTTTTTTTTTTTTTTTTTTTTTT PDIG        TELAPSE      840.97 TCPU      834.50
 CHARGE NORMALIZATION FACTOR   1.00000000
 TOTAL ATOMIC CHARGES:
  27.7752265  27.7752361  18.7169597  18.7136648  18.7168565  18.7135277
   7.1982340   7.1989023   7.1985434   7.1985761   7.1982335   7.1989025
   7.1985859   7.1985511
 SUMMED SPIN DENSITY           0.00050412
 TOTAL ATOMIC SPINS  :
   0.0002522   0.0002480   0.2531726  -0.2549493   0.2534075  -0.2548712
  -0.0471804   0.0479323  -0.0473099   0.0481862  -0.0471619   0.0479167
   0.0481880  -0.0473265
 TTTTTTTTTTTTTTTTTTTTTTTTTTTTTT MOQGAD      TELAPSE      840.98 TCPU      834.52
 TTTTTTTTTTTTTTTTTTTTTTTTTTTTTT SHELLXN     TELAPSE     1176.77 TCPU     1168.37
 TTTTTTTTTTTTTTTTTTTTTTTTTTTTTT MONMO3      TELAPSE     1240.63 TCPU     1231.16
 NUMERICALLY INTEGRATED DENSITY     94.0002419789     93.9997377800
 TTTTTTTTTTTTTTTTTTTTTTTTTTTTTT NUMDFT      TELAPSE     1249.81 TCPU     1240.32
 CYC   2 ETOT(AU) -4.614483612853E+03 DETOT  3.75E+01 tst  1.16E+00 PX  5.66E-01
 TTTTTTTTTTTTTTTTTTTTTTTTTTTTTT DIIS        TELAPSE     1250.04 TCPU     1240.55
 DIIS TEST: 0.50777E+03 AT SCF   CYCLE   2 - DIIS ACTIVE - HISTORY:     2 CYCLES
 TTTTTTTTTTTTTTTTTTTTTTTTTTTTTT FDIK        TELAPSE     1257.33 TCPU     1247.80

    ALPHA      ELECTRONS
 INSULATING STATE
 TOP OF VALENCE BANDS -    BAND     94; K  499; EIG -8.9077322E-02 AU
 TOP OF VALENCE BANDS -    BAND     94; K    1; EIG -9.4488980E-02 AU
 BOTTOM OF VIRTUAL BANDS - BAND     95; K    1; EIG -8.6940087E-02 AU
 INDIRECT ENERGY BAND GAP:   0.0582 eV

    BETA       ELECTRONS
 INSULATING STATE
 TOP OF VALENCE BANDS -    BAND     94; K  499; EIG -8.9114915E-02 AU
 TOP OF VALENCE BANDS -    BAND     94; K    1; EIG -9.4570076E-02 AU
 BOTTOM OF VIRTUAL BANDS - BAND     95; K    1; EIG -8.7583239E-02 AU
 INDIRECT ENERGY BAND GAP:   0.0417 eV
 TTTTTTTTTTTTTTTTTTTTTTTTTTTTTT PDIG        TELAPSE     1258.48 TCPU     1248.94
 CHARGE NORMALIZATION FACTOR   1.00000000
 TOTAL ATOMIC CHARGES:
  29.2113901  29.2113803  14.4913205  14.4816489  14.4908996  14.4816314
   8.9543851   8.9534847   8.9543384   8.9536554   8.9543796   8.9534832
   8.9536637   8.9543391
 SUMMED SPIN DENSITY          -0.00000000
 TOTAL ATOMIC SPINS  :
   0.0003518   0.0003505   4.0197987  -4.0279691   4.0198335  -4.0277795
  -0.1132863   0.1173139  -0.1135021   0.1171832  -0.1132869   0.1173127
   0.1171808  -0.1135010
 TTTTTTTTTTTTTTTTTTTTTTTTTTTTTT MOQGAD      TELAPSE     1258.49 TCPU     1248.96
 TTTTTTTTTTTTTTTTTTTTTTTTTTTTTT SHELLXN     TELAPSE     1593.07 TCPU     1582.69
 TTTTTTTTTTTTTTTTTTTTTTTTTTTTTT MONMO3      TELAPSE     1658.11 TCPU     1647.13
 NUMERICALLY INTEGRATED DENSITY     93.9999876454     93.9999874143
 TTTTTTTTTTTTTTTTTTTTTTTTTTTTTT NUMDFT      TELAPSE     1667.27 TCPU     1656.25
 CYC   3 ETOT(AU) -4.654949249837E+03 DETOT -4.05E+01 tst  1.69E+00 PX  4.81E-01
 TTTTTTTTTTTTTTTTTTTTTTTTTTTTTT DIIS        TELAPSE     1667.46 TCPU     1656.44
 DIIS TEST: 0.12183E+02 AT SCF   CYCLE   3 - DIIS ACTIVE - HISTORY:     3 CYCLES
 TTTTTTTTTTTTTTTTTTTTTTTTTTTTTT FDIK        TELAPSE     1674.77 TCPU     1663.72

    ALPHA      ELECTRONS
 INSULATING STATE
 TOP OF VALENCE BANDS -    BAND     94; K  499; EIG -1.7528305E-01 AU
 TOP OF VALENCE BANDS -    BAND     94; K    1; EIG -1.7908598E-01 AU
 BOTTOM OF VIRTUAL BANDS - BAND     95; K    1; EIG -1.3287902E-01 AU
 INDIRECT ENERGY BAND GAP:   1.1539 eV

    BETA       ELECTRONS
 INSULATING STATE
 TOP OF VALENCE BANDS -    BAND     94; K  499; EIG -1.7541336E-01 AU
 TOP OF VALENCE BANDS -    BAND     94; K    1; EIG -1.7901136E-01 AU
 BOTTOM OF VIRTUAL BANDS - BAND     95; K    1; EIG -1.3199152E-01 AU
 INDIRECT ENERGY BAND GAP:   1.1816 eV
 TTTTTTTTTTTTTTTTTTTTTTTTTTTTTT PDIG        TELAPSE     1675.91 TCPU     1664.86
 CHARGE NORMALIZATION FACTOR   1.00000000
 TOTAL ATOMIC CHARGES:
  28.5473696  28.5473736  14.1508596  14.1574400  14.1512576  14.1573928
   9.2859174   9.2862321   9.2859303   9.2860716   9.2859166   9.2862329
   9.2860723   9.2859336
 SUMMED SPIN DENSITY          -0.00000000
 TOTAL ATOMIC SPINS  :
  -0.0013884  -0.0013923   4.2795369  -4.2747139   4.2791560  -4.2748225
  -0.1024037   0.1008649  -0.1024766   0.1008273  -0.1024005   0.1008597
   0.1008282  -0.1024751
 TTTTTTTTTTTTTTTTTTTTTTTTTTTTTT MOQGAD      TELAPSE     1675.93 TCPU     1664.88
 TTTTTTTTTTTTTTTTTTTTTTTTTTTTTT SHELLXN     TELAPSE     2009.48 TCPU     1997.69
 TTTTTTTTTTTTTTTTTTTTTTTTTTTTTT MONMO3      TELAPSE     2074.97 TCPU     2062.60
 NUMERICALLY INTEGRATED DENSITY     93.9999884168     93.9999882314
 TTTTTTTTTTTTTTTTTTTTTTTTTTTTTT NUMDFT      TELAPSE     2085.32 TCPU     2071.67
 CYC   4 ETOT(AU) -4.655532635526E+03 DETOT -5.83E-01 tst  1.51E-02 PX  1.30E-01
 TTTTTTTTTTTTTTTTTTTTTTTTTTTTTT DIIS        TELAPSE     2085.51 TCPU     2071.86
 DIIS TEST: 0.50578E+01 AT SCF   CYCLE   4 - DIIS ACTIVE - HISTORY:     4 CYCLES
 TTTTTTTTTTTTTTTTTTTTTTTTTTTTTT FDIK        TELAPSE     2092.68 TCPU     2078.63

    ALPHA      ELECTRONS
 INSULATING STATE
 TOP OF VALENCE BANDS -    BAND     94; K  446; EIG -2.0901864E-01 AU
 TOP OF VALENCE BANDS -    BAND     94; K    1; EIG -2.1121743E-01 AU
 BOTTOM OF VIRTUAL BANDS - BAND     95; K    1; EIG -1.1741527E-01 AU
 INDIRECT ENERGY BAND GAP:   2.4927 eV

    BETA       ELECTRONS
 INSULATING STATE
 TOP OF VALENCE BANDS -    BAND     94; K  368; EIG -2.0874579E-01 AU
 TOP OF VALENCE BANDS -    BAND     94; K    1; EIG -2.1100420E-01 AU
 BOTTOM OF VIRTUAL BANDS - BAND     95; K    1; EIG -1.1909275E-01 AU
 INDIRECT ENERGY BAND GAP:   2.4396 eV
 TTTTTTTTTTTTTTTTTTTTTTTTTTTTTT PDIG        TELAPSE     2093.82 TCPU     2079.77
 CHARGE NORMALIZATION FACTOR   1.00000000
 TOTAL ATOMIC CHARGES:
  28.8626354  28.8626328  14.0768322  14.0673996  14.0765672  14.0674349
   9.2490344   9.2475851   9.2489475   9.2476804   9.2490351   9.2475839
   9.2476823   9.2489492
 SUMMED SPIN DENSITY          -0.00000000
 TOTAL ATOMIC SPINS  :
   0.0002254   0.0002213   4.3614422  -4.3692402   4.3616783  -4.3691895
  -0.1034805   0.1071963  -0.1034449   0.1071585  -0.1034789   0.1071972
   0.1071584  -0.1034437
 TTTTTTTTTTTTTTTTTTTTTTTTTTTTTT MOQGAD      TELAPSE     2093.84 TCPU     2079.78
 TTTTTTTTTTTTTTTTTTTTTTTTTTTTTT SHELLXN     TELAPSE     2428.11 TCPU     2413.02
 TTTTTTTTTTTTTTTTTTTTTTTTTTTTTT MONMO3      TELAPSE     2493.46 TCPU     2478.30
 NUMERICALLY INTEGRATED DENSITY     93.9999884618     93.9999883320
 TTTTTTTTTTTTTTTTTTTTTTTTTTTTTT NUMDFT      TELAPSE     2502.61 TCPU     2487.45
 CYC   5 ETOT(AU) -4.655769224315E+03 DETOT -2.37E-01 tst  4.15E-03 PX  7.89E-02
 TTTTTTTTTTTTTTTTTTTTTTTTTTTTTT DIIS        TELAPSE     2502.81 TCPU     2487.65
 DIIS TEST: 0.45494E+00 AT SCF   CYCLE   5 - DIIS ACTIVE - HISTORY:     5 CYCLES
 TTTTTTTTTTTTTTTTTTTTTTTTTTTTTT FDIK        TELAPSE     2510.31 TCPU     2495.14

    ALPHA      ELECTRONS
 INSULATING STATE
 TOP OF VALENCE BANDS -    BAND     94; K  345; EIG -1.8236097E-01 AU
 TOP OF VALENCE BANDS -    BAND     94; K    1; EIG -1.8439485E-01 AU
 BOTTOM OF VIRTUAL BANDS - BAND     95; K    1; EIG -9.1396440E-02 AU
 INDIRECT ENERGY BAND GAP:   2.4753 eV

    BETA       ELECTRONS
 INSULATING STATE
 TOP OF VALENCE BANDS -    BAND     94; K  267; EIG -1.8261664E-01 AU
 TOP OF VALENCE BANDS -    BAND     94; K    1; EIG -1.8468061E-01 AU
 BOTTOM OF VIRTUAL BANDS - BAND     95; K    1; EIG -9.0397426E-02 AU
 INDIRECT ENERGY BAND GAP:   2.5094 eV
 TTTTTTTTTTTTTTTTTTTTTTTTTTTTTT PDIG        TELAPSE     2511.46 TCPU     2496.29
 CHARGE NORMALIZATION FACTOR   1.00000000
 TOTAL ATOMIC CHARGES:
  28.8478445  28.8478449  14.0843757  14.0897238  14.0845251  14.0896908
   9.2439400   9.2450607   9.2439632   9.2450344   9.2439394   9.2450598
   9.2450337   9.2439639
 SUMMED SPIN DENSITY          -0.00000000
 TOTAL ATOMIC SPINS  :
  -0.0003635  -0.0003630   4.3570338  -4.3535604   4.3569195  -4.3535864
  -0.1090278   0.1075180  -0.1090421   0.1075119  -0.1090277   0.1075179
   0.1075121  -0.1090424
 TTTTTTTTTTTTTTTTTTTTTTTTTTTTTT MOQGAD      TELAPSE     2511.47 TCPU     2496.30
 TTTTTTTTTTTTTTTTTTTTTTTTTTTTTT SHELLXN     TELAPSE     2845.86 TCPU     2830.15
 TTTTTTTTTTTTTTTTTTTTTTTTTTTTTT MONMO3      TELAPSE     2911.76 TCPU     2895.96
 NUMERICALLY INTEGRATED DENSITY     93.9999882632     93.9999881502
 TTTTTTTTTTTTTTTTTTTTTTTTTTTTTT NUMDFT      TELAPSE     2920.96 TCPU     2905.16
 CYC   6 ETOT(AU) -4.655796179990E+03 DETOT -2.70E-02 tst  1.20E-04 PX  1.91E-02
 TTTTTTTTTTTTTTTTTTTTTTTTTTTTTT DIIS        TELAPSE     2921.16 TCPU     2905.36
 DIIS TEST: 0.26755E-01 AT SCF   CYCLE   6 - DIIS ACTIVE - HISTORY:     6 CYCLES
 TTTTTTTTTTTTTTTTTTTTTTTTTTTTTT FDIK        TELAPSE     2929.43 TCPU     2912.39

    ALPHA      ELECTRONS
 INSULATING STATE
 TOP OF VALENCE BANDS -    BAND     94; K  345; EIG -1.8853580E-01 AU
 TOP OF VALENCE BANDS -    BAND     94; K    1; EIG -1.9044164E-01 AU
 BOTTOM OF VIRTUAL BANDS - BAND     95; K    1; EIG -9.4307407E-02 AU
 INDIRECT ENERGY BAND GAP:   2.5641 eV

    BETA       ELECTRONS
 INSULATING STATE
 TOP OF VALENCE BANDS -    BAND     94; K  267; EIG -1.8815511E-01 AU
 TOP OF VALENCE BANDS -    BAND     94; K    1; EIG -1.9003860E-01 AU
 BOTTOM OF VIRTUAL BANDS - BAND     95; K    1; EIG -9.6837277E-02 AU
 INDIRECT ENERGY BAND GAP:   2.4849 eV
 TTTTTTTTTTTTTTTTTTTTTTTTTTTTTT PDIG        TELAPSE     2930.59 TCPU     2913.54
 CHARGE NORMALIZATION FACTOR   1.00000000
 TOTAL ATOMIC CHARGES:
  28.8330456  28.8330456  14.0965692  14.0825163  14.0963792  14.0825537
   9.2485664   9.2454206   9.2485176   9.2454395   9.2485677   9.2454212
   9.2454402   9.2485173
 SUMMED SPIN DENSITY          -0.00000000
 TOTAL ATOMIC SPINS  :
   0.0006391   0.0006395   4.3478229  -4.3586754   4.3479741  -4.3586465
  -0.1077773   0.1128336  -0.1077628   0.1128297  -0.1077769   0.1128333
   0.1128295  -0.1077628
 TTTTTTTTTTTTTTTTTTTTTTTTTTTTTT MOQGAD      TELAPSE     2930.60 TCPU     2913.56
 TTTTTTTTTTTTTTTTTTTTTTTTTTTTTT SHELLXN     TELAPSE     3268.59 TCPU     3247.85
 TTTTTTTTTTTTTTTTTTTTTTTTTTTTTT MONMO3      TELAPSE     3330.62 TCPU     3309.54
 NUMERICALLY INTEGRATED DENSITY     93.9999883067     93.9999882073
 TTTTTTTTTTTTTTTTTTTTTTTTTTTTTT NUMDFT      TELAPSE     3339.96 TCPU     3318.63
 CYC   7 ETOT(AU) -4.655797698091E+03 DETOT -1.52E-03 tst  1.80E-05 PX  3.66E-03
 TTTTTTTTTTTTTTTTTTTTTTTTTTTTTT DIIS        TELAPSE     3340.16 TCPU     3318.83
 DIIS TEST: 0.70257E-02 AT SCF   CYCLE   7 - DIIS ACTIVE - HISTORY:     7 CYCLES
 TTTTTTTTTTTTTTTTTTTTTTTTTTTTTT FDIK        TELAPSE     3346.99 TCPU     3325.54

    ALPHA      ELECTRONS
 INSULATING STATE
 TOP OF VALENCE BANDS -    BAND     94; K  345; EIG -1.8783741E-01 AU
 TOP OF VALENCE BANDS -    BAND     94; K    1; EIG -1.8965772E-01 AU
 BOTTOM OF VIRTUAL BANDS - BAND     95; K    1; EIG -9.7258154E-02 AU
 INDIRECT ENERGY BAND GAP:   2.4648 eV

    BETA       ELECTRONS
 INSULATING STATE
 TOP OF VALENCE BANDS -    BAND     94; K  267; EIG -1.8851848E-01 AU
 TOP OF VALENCE BANDS -    BAND     94; K    1; EIG -1.9046452E-01 AU
 BOTTOM OF VIRTUAL BANDS - BAND     95; K    1; EIG -9.3804221E-02 AU
 INDIRECT ENERGY BAND GAP:   2.5773 eV
 TTTTTTTTTTTTTTTTTTTTTTTTTTTTTT PDIG        TELAPSE     3348.14 TCPU     3326.67
 CHARGE NORMALIZATION FACTOR   1.00000000
 TOTAL ATOMIC CHARGES:
  28.8355206  28.8355200  14.0843619  14.1038137  14.0846395  14.1037537
   9.2414980   9.2465861   9.2415575   9.2465547   9.2414969   9.2465853
   9.2465540   9.2415581
 SUMMED SPIN DENSITY           0.00000000
 TOTAL ATOMIC SPINS  :
  -0.0009966  -0.0009964   4.3563430  -4.3422911   4.3561306  -4.3423373
  -0.1149051   0.1084549  -0.1149279   0.1084520  -0.1149054   0.1084550
   0.1084520  -0.1149278
 TTTTTTTTTTTTTTTTTTTTTTTTTTTTTT MOQGAD      TELAPSE     3348.16 TCPU     3326.68
 TTTTTTTTTTTTTTTTTTTTTTTTTTTTTT SHELLXN     TELAPSE     3686.33 TCPU     3660.87
 TTTTTTTTTTTTTTTTTTTTTTTTTTTTTT MONMO3      TELAPSE     3747.91 TCPU     3722.37
 NUMERICALLY INTEGRATED DENSITY     93.9999882967     93.9999882023
 TTTTTTTTTTTTTTTTTTTTTTTTTTTTTT NUMDFT      TELAPSE     3757.12 TCPU     3731.58
 CYC   8 ETOT(AU) -4.655797849885E+03 DETOT -1.52E-04 tst  2.06E-05 PX  2.75E-03
 TTTTTTTTTTTTTTTTTTTTTTTTTTTTTT DIIS        TELAPSE     3757.32 TCPU     3731.78
 DIIS TEST: 0.51273E-02 AT SCF   CYCLE   8 - DIIS ACTIVE - HISTORY:     8 CYCLES
 TTTTTTTTTTTTTTTTTTTTTTTTTTTTTT FDIK        TELAPSE     3763.84 TCPU     3738.30

    ALPHA      ELECTRONS
 INSULATING STATE
 TOP OF VALENCE BANDS -    BAND     94; K  345; EIG -1.8801465E-01 AU
 TOP OF VALENCE BANDS -    BAND     94; K    1; EIG -1.8990544E-01 AU
 BOTTOM OF VIRTUAL BANDS - BAND     95; K    1; EIG -9.5197255E-02 AU
 INDIRECT ENERGY BAND GAP:   2.5257 eV

    BETA       ELECTRONS
 INSULATING STATE
 TOP OF VALENCE BANDS -    BAND     94; K  267; EIG -1.8794565E-01 AU
 TOP OF VALENCE BANDS -    BAND     94; K    1; EIG -1.8980940E-01 AU
 BOTTOM OF VIRTUAL BANDS - BAND     95; K    1; EIG -9.6004675E-02 AU
 INDIRECT ENERGY BAND GAP:   2.5018 eV
 TTTTTTTTTTTTTTTTTTTTTTTTTTTTTT PDIG        TELAPSE     3764.99 TCPU     3739.45
 CHARGE NORMALIZATION FACTOR   1.00000000
 TOTAL ATOMIC CHARGES:
  28.8358981  28.8358979  14.1005737  14.0958520  14.1006065  14.0958442
   9.2426777   9.2411595   9.2426784   9.2411486   9.2426773   9.2411590
   9.2411484   9.2426786
 SUMMED SPIN DENSITY          -0.00000000
 TOTAL ATOMIC SPINS  :
   0.0001603   0.0001604   4.3437796  -4.3476787   4.3437552  -4.3476848
  -0.1118630   0.1137431  -0.1118689   0.1137427  -0.1118630   0.1137432
   0.1137427  -0.1118689
 TTTTTTTTTTTTTTTTTTTTTTTTTTTTTT MOQGAD      TELAPSE     3765.01 TCPU     3739.46
 TTTTTTTTTTTTTTTTTTTTTTTTTTTTTT SHELLXN     TELAPSE     4100.36 TCPU     4073.77
 TTTTTTTTTTTTTTTTTTTTTTTTTTTTTT MONMO3      TELAPSE     4165.40 TCPU     4138.72
 NUMERICALLY INTEGRATED DENSITY     93.9999882961     93.9999882059
 TTTTTTTTTTTTTTTTTTTTTTTTTTTTTT NUMDFT      TELAPSE     4174.60 TCPU     4147.91
 CYC   9 ETOT(AU) -4.655798194385E+03 DETOT -3.44E-04 tst  1.20E-05 PX  1.87E-03
 TTTTTTTTTTTTTTTTTTTTTTTTTTTTTT DIIS        TELAPSE     4174.80 TCPU     4148.11
 DIIS TEST: 0.40348E-03 AT SCF   CYCLE   9 - DIIS ACTIVE - HISTORY:     9 CYCLES
 TTTTTTTTTTTTTTTTTTTTTTTTTTTTTT FDIK        TELAPSE     4181.88 TCPU     4155.17

    ALPHA      ELECTRONS
 INSULATING STATE
 TOP OF VALENCE BANDS -    BAND     94; K  345; EIG -1.8797454E-01 AU
 TOP OF VALENCE BANDS -    BAND     94; K    1; EIG -1.8981722E-01 AU
 BOTTOM OF VIRTUAL BANDS - BAND     95; K    1; EIG -9.5683848E-02 AU
 INDIRECT ENERGY BAND GAP:   2.5114 eV

    BETA       ELECTRONS
 INSULATING STATE
 TOP OF VALENCE BANDS -    BAND     94; K   87; EIG -1.8797041E-01 AU
 TOP OF VALENCE BANDS -    BAND     94; K    1; EIG -1.8987630E-01 AU
 BOTTOM OF VIRTUAL BANDS - BAND     95; K    1; EIG -9.6123684E-02 AU
 INDIRECT ENERGY BAND GAP:   2.4993 eV
 TTTTTTTTTTTTTTTTTTTTTTTTTTTTTT PDIG        TELAPSE     4183.03 TCPU     4156.32
 CHARGE NORMALIZATION FACTOR   1.00000000
 TOTAL ATOMIC CHARGES:
  28.8338584  28.8338585  14.1027497  14.1006661  14.1026159  14.1006908
   9.2405536   9.2408451   9.2405202   9.2408605   9.2405545   9.2408457
   9.2408611   9.2405200
 SUMMED SPIN DENSITY          -0.00000000
 TOTAL ATOMIC SPINS  :
   0.0000441   0.0000440   4.3415556  -4.3435055   4.3416578  -4.3434856
  -0.1133255   0.1142429  -0.1133156   0.1142430  -0.1133253   0.1142428
   0.1142429  -0.1133157
 TTTTTTTTTTTTTTTTTTTTTTTTTTTTTT MOQGAD      TELAPSE     4183.05 TCPU     4156.34
 TTTTTTTTTTTTTTTTTTTTTTTTTTTTTT SHELLXN     TELAPSE     4518.22 TCPU     4491.14
 TTTTTTTTTTTTTTTTTTTTTTTTTTTTTT MONMO3      TELAPSE     4583.50 TCPU     4556.40
 NUMERICALLY INTEGRATED DENSITY     93.9999882946     93.9999882067
 TTTTTTTTTTTTTTTTTTTTTTTTTTTTTT NUMDFT      TELAPSE     4592.67 TCPU     4565.57
 CYC  10 ETOT(AU) -4.655798220160E+03 DETOT -2.58E-05 tst  1.65E-06 PX  4.29E-04
 TTTTTTTTTTTTTTTTTTTTTTTTTTTTTT DIIS        TELAPSE     4592.87 TCPU     4565.76
 DIIS TEST: 0.25749E-04 AT SCF   CYCLE  10 - DIIS ACTIVE - HISTORY:    10 CYCLES
 TTTTTTTTTTTTTTTTTTTTTTTTTTTTTT FDIK        TELAPSE     4599.10 TCPU     4571.94

    ALPHA      ELECTRONS
 INSULATING STATE
 TOP OF VALENCE BANDS -    BAND     94; K  345; EIG -1.8790542E-01 AU
 TOP OF VALENCE BANDS -    BAND     94; K    1; EIG -1.8978921E-01 AU
 BOTTOM OF VIRTUAL BANDS - BAND     95; K    1; EIG -9.5666816E-02 AU
 INDIRECT ENERGY BAND GAP:   2.5099 eV

    BETA       ELECTRONS
 INSULATING STATE
 TOP OF VALENCE BANDS -    BAND     94; K   87; EIG -1.8794540E-01 AU
 TOP OF VALENCE BANDS -    BAND     94; K    1; EIG -1.8978898E-01 AU
 BOTTOM OF VIRTUAL BANDS - BAND     95; K    1; EIG -9.5852731E-02 AU
 INDIRECT ENERGY BAND GAP:   2.5060 eV
 TTTTTTTTTTTTTTTTTTTTTTTTTTTTTT PDIG        TELAPSE     4600.26 TCPU     4573.09
 CHARGE NORMALIZATION FACTOR   1.00000000
 TOTAL ATOMIC CHARGES:
  28.8340112  28.8340110  14.1022460  14.1009019  14.1024862  14.1008533
   9.2412336   9.2401299   9.2412803   9.2401026   9.2412326   9.2401289
   9.2401019   9.2412807
 SUMMED SPIN DENSITY          -0.00000000
 TOTAL ATOMIC SPINS  :
   0.0000067   0.0000067   4.3417613  -4.3431625   4.3415736  -4.3431986
  -0.1136022   0.1143662  -0.1136227   0.1143649  -0.1136023   0.1143664
   0.1143650  -0.1136226
 TTTTTTTTTTTTTTTTTTTTTTTTTTTTTT MOQGAD      TELAPSE     4600.27 TCPU     4573.10
 TTTTTTTTTTTTTTTTTTTTTTTTTTTTTT SHELLXN     TELAPSE     4935.61 TCPU     4906.78
 TTTTTTTTTTTTTTTTTTTTTTTTTTTTTT MONMO3      TELAPSE     4999.25 TCPU     4970.33
 NUMERICALLY INTEGRATED DENSITY     93.9999882946     93.9999882074
 TTTTTTTTTTTTTTTTTTTTTTTTTTTTTT NUMDFT      TELAPSE     5008.38 TCPU     4979.46
 CYC  11 ETOT(AU) -4.655798221094E+03 DETOT -9.35E-07 tst  1.36E-07 PX  1.73E-04
 TTTTTTTTTTTTTTTTTTTTTTTTTTTTTT DIIS        TELAPSE     5008.58 TCPU     4979.66
 DIIS TEST: 0.21112E-04 AT SCF   CYCLE  11 - DIIS ACTIVE - HISTORY:    11 CYCLES
 TTTTTTTTTTTTTTTTTTTTTTTTTTTTTT FDIK        TELAPSE     5014.87 TCPU     4985.94

    ALPHA      ELECTRONS
 INSULATING STATE
 TOP OF VALENCE BANDS -    BAND     94; K  345; EIG -1.8791251E-01 AU
 TOP OF VALENCE BANDS -    BAND     94; K    1; EIG -1.8975977E-01 AU
 BOTTOM OF VIRTUAL BANDS - BAND     95; K    1; EIG -9.5524728E-02 AU
 INDIRECT ENERGY BAND GAP:   2.5140 eV

    BETA       ELECTRONS
 INSULATING STATE
 TOP OF VALENCE BANDS -    BAND     94; K   87; EIG -1.8792159E-01 AU
 TOP OF VALENCE BANDS -    BAND     94; K    1; EIG -1.8979319E-01 AU
 BOTTOM OF VIRTUAL BANDS - BAND     95; K    1; EIG -9.5890261E-02 AU
 INDIRECT ENERGY BAND GAP:   2.5043 eV
 TTTTTTTTTTTTTTTTTTTTTTTTTTTTTT PDIG        TELAPSE     5016.02 TCPU     4987.09
 CHARGE NORMALIZATION FACTOR   1.00000000
 TOTAL ATOMIC CHARGES:
  28.8341154  28.8341153  14.1025084  14.1005273  14.1024211  14.1005390
   9.2408585   9.2405976   9.2408313   9.2405994   9.2408584   9.2405974
   9.2405994   9.2408314
 SUMMED SPIN DENSITY          -0.00000000
 TOTAL ATOMIC SPINS  :
   0.0000376   0.0000376   4.3415372  -4.3433877   4.3415967  -4.3433786
  -0.1136035   0.1144899  -0.1135983   0.1144905  -0.1136035   0.1144899
   0.1144905  -0.1135983
 TTTTTTTTTTTTTTTTTTTTTTTTTTTTTT MOQGAD      TELAPSE     5016.04 TCPU     4987.11
 TTTTTTTTTTTTTTTTTTTTTTTTTTTTTT SHELLXN     TELAPSE     5350.24 TCPU     5320.83
 TTTTTTTTTTTTTTTTTTTTTTTTTTTTTT MONMO3      TELAPSE     5415.26 TCPU     5385.72
 NUMERICALLY INTEGRATED DENSITY     93.9999882940     93.9999882069
 TTTTTTTTTTTTTTTTTTTTTTTTTTTTTT NUMDFT      TELAPSE     5424.42 TCPU     5394.87
 CYC  12 ETOT(AU) -4.655798222734E+03 DETOT -1.64E-06 tst  4.19E-08 PX  1.02E-04
 TTTTTTTTTTTTTTTTTTTTTTTTTTTTTT DIIS        TELAPSE     5424.62 TCPU     5395.07
 DIIS TEST: 0.24101E-05 AT SCF   CYCLE  12 - DIIS ACTIVE - HISTORY:    12 CYCLES
 TTTTTTTTTTTTTTTTTTTTTTTTTTTTTT FDIK        TELAPSE     5431.77 TCPU     5402.01

    ALPHA      ELECTRONS
 INSULATING STATE
 TOP OF VALENCE BANDS -    BAND     94; K  345; EIG -1.8792178E-01 AU
 TOP OF VALENCE BANDS -    BAND     94; K    1; EIG -1.8976655E-01 AU
 BOTTOM OF VIRTUAL BANDS - BAND     95; K    1; EIG -9.5502855E-02 AU
 INDIRECT ENERGY BAND GAP:   2.5148 eV

    BETA       ELECTRONS
 INSULATING STATE
 TOP OF VALENCE BANDS -    BAND     94; K   87; EIG -1.8793358E-01 AU
 TOP OF VALENCE BANDS -    BAND     94; K    1; EIG -1.8979737E-01 AU
 BOTTOM OF VIRTUAL BANDS - BAND     95; K    1; EIG -9.5851696E-02 AU
 INDIRECT ENERGY BAND GAP:   2.5057 eV
 TTTTTTTTTTTTTTTTTTTTTTTTTTTTTT PDIG        TELAPSE     5432.92 TCPU     5403.16
 CHARGE NORMALIZATION FACTOR   1.00000000
 TOTAL ATOMIC CHARGES:
  28.8341794  28.8341795  14.1022306  14.1004590  14.1024167  14.1004310
   9.2408986   9.2406079   9.2409428   9.2406022   9.2408991   9.2406081
   9.2406025   9.2409427
 SUMMED SPIN DENSITY           0.00000000
 TOTAL ATOMIC SPINS  :
   0.0000343   0.0000342   4.3416936  -4.3433977   4.3415486  -4.3434186
  -0.1136901   0.1145744  -0.1137035   0.1145720  -0.1136900   0.1145743
   0.1145719  -0.1137035
 TTTTTTTTTTTTTTTTTTTTTTTTTTTTTT MOQGAD      TELAPSE     5432.94 TCPU     5403.18
 TTTTTTTTTTTTTTTTTTTTTTTTTTTTTT SHELLXN     TELAPSE     5768.10 TCPU     5736.91
 TTTTTTTTTTTTTTTTTTTTTTTTTTTTTT MONMO3      TELAPSE     5833.09 TCPU     5801.88
 NUMERICALLY INTEGRATED DENSITY     93.9999882938     93.9999882071
 TTTTTTTTTTTTTTTTTTTTTTTTTTTTTT NUMDFT      TELAPSE     5842.27 TCPU     5811.06
 CYC  13 ETOT(AU) -4.655798223159E+03 DETOT -4.26E-07 tst  7.00E-09 PX  3.89E-05
 TTTTTTTTTTTTTTTTTTTTTTTTTTTTTT DIIS        TELAPSE     5842.47 TCPU     5811.25
 DIIS TEST: 0.26810E-06 AT SCF   CYCLE  13 - DIIS ACTIVE - HISTORY:    13 CYCLES
 TTTTTTTTTTTTTTTTTTTTTTTTTTTTTT FDIK        TELAPSE     5848.44 TCPU     5817.20

    ALPHA      ELECTRONS
 INSULATING STATE
 TOP OF VALENCE BANDS -    BAND     94; K  345; EIG -1.8792304E-01 AU
 TOP OF VALENCE BANDS -    BAND     94; K    1; EIG -1.8976683E-01 AU
 BOTTOM OF VIRTUAL BANDS - BAND     95; K    1; EIG -9.5497380E-02 AU
 INDIRECT ENERGY BAND GAP:   2.5150 eV

    BETA       ELECTRONS
 INSULATING STATE
 TOP OF VALENCE BANDS -    BAND     94; K   87; EIG -1.8793547E-01 AU
 TOP OF VALENCE BANDS -    BAND     94; K    1; EIG -1.8979701E-01 AU
 BOTTOM OF VIRTUAL BANDS - BAND     95; K    1; EIG -9.5843775E-02 AU
 INDIRECT ENERGY BAND GAP:   2.5059 eV
 TTTTTTTTTTTTTTTTTTTTTTTTTTTTTT PDIG        TELAPSE     5849.59 TCPU     5818.35
 CHARGE NORMALIZATION FACTOR   1.00000000
 TOTAL ATOMIC CHARGES:
  28.8341821  28.8341820  14.1024967  14.1003927  14.1021046  14.1004482
   9.2409982   9.2406017   9.2408864   9.2406115   9.2409975   9.2406010
   9.2406110   9.2408865
 SUMMED SPIN DENSITY          -0.00000000
 TOTAL ATOMIC SPINS  :
   0.0000342   0.0000342   4.3414770  -4.3434313   4.3417764  -4.3433900
  -0.1137432   0.1146021  -0.1137159   0.1146066  -0.1137432   0.1146022
   0.1146067  -0.1137159
 TTTTTTTTTTTTTTTTTTTTTTTTTTTTTT MOQGAD      TELAPSE     5849.60 TCPU     5818.36
 TTTTTTTTTTTTTTTTTTTTTTTTTTTTTT SHELLXN     TELAPSE     6183.99 TCPU     6152.38
 TTTTTTTTTTTTTTTTTTTTTTTTTTTTTT MONMO3      TELAPSE     6249.64 TCPU     6217.98
 NUMERICALLY INTEGRATED DENSITY     93.9999882939     93.9999882073
 TTTTTTTTTTTTTTTTTTTTTTTTTTTTTT NUMDFT      TELAPSE     6258.80 TCPU     6227.13
 CYC  14 ETOT(AU) -4.655798223185E+03 DETOT -2.56E-08 tst  2.04E-09 PX  3.49E-05
 TTTTTTTTTTTTTTTTTTTTTTTTTTTTTT DIIS        TELAPSE     6258.99 TCPU     6227.32
 DIIS TEST: 0.61551E-06 AT SCF   CYCLE  14 - DIIS ACTIVE - HISTORY:    14 CYCLES
 TTTTTTTTTTTTTTTTTTTTTTTTTTTTTT FDIK        TELAPSE     6264.85 TCPU     6233.10

    ALPHA      ELECTRONS
 INSULATING STATE
 TOP OF VALENCE BANDS -    BAND     94; K  345; EIG -1.8792347E-01 AU
 TOP OF VALENCE BANDS -    BAND     94; K    1; EIG -1.8976626E-01 AU
 BOTTOM OF VIRTUAL BANDS - BAND     95; K    1; EIG -9.5494134E-02 AU
 INDIRECT ENERGY BAND GAP:   2.5151 eV

    BETA       ELECTRONS
 INSULATING STATE
 TOP OF VALENCE BANDS -    BAND     94; K   87; EIG -1.8793526E-01 AU
 TOP OF VALENCE BANDS -    BAND     94; K    1; EIG -1.8979692E-01 AU
 BOTTOM OF VIRTUAL BANDS - BAND     95; K    1; EIG -9.5844425E-02 AU
 INDIRECT ENERGY BAND GAP:   2.5059 eV
 TTTTTTTTTTTTTTTTTTTTTTTTTTTTTT PDIG        TELAPSE     6266.00 TCPU     6234.24
 CHARGE NORMALIZATION FACTOR   1.00000000
 TOTAL ATOMIC CHARGES:
  28.8341818  28.8341817  14.1022993  14.1004084  14.1023052  14.1004133
   9.2409394   9.2406165   9.2409342   9.2406155   9.2409391   9.2406161
   9.2406153   9.2409343
 SUMMED SPIN DENSITY          -0.00000000
 TOTAL ATOMIC SPINS  :
   0.0000348   0.0000348   4.3416261  -4.3434175   4.3416193  -4.3434129
  -0.1137359   0.1146153  -0.1137375   0.1146159  -0.1137359   0.1146153
   0.1146159  -0.1137375
 TTTTTTTTTTTTTTTTTTTTTTTTTTTTTT MOQGAD      TELAPSE     6266.02 TCPU     6234.26
 TTTTTTTTTTTTTTTTTTTTTTTTTTTTTT SHELLXN     TELAPSE     6601.77 TCPU     6568.98
 +++ ENERGIES IN A.U. +++
 ::: EXT EL-POLE                                  -5.4211107527425E+03
 ::: EXT EL-SPHEROPOLE                             5.2003002838540E+01
 ::: BIELET ZONE E-E                               6.6978492160431E+03
 ::: TOTAL E-E                                     1.3287414661391E+03
 ::: TOTAL E-N + N-E                              -9.2322145446848E+03
 ::: TOTAL N-N                                    -9.9258465139707E+02
 ::: KINETIC ENERGY                                4.4431242108247E+03
 ::: PSEUDO TOTAL   ENERGY                        -4.4529335191181E+03
 ::: VIRIAL COEFFICIENT                            9.9889734210465E-01
 TTTTTTTTTTTTTTTTTTTTTTTTTTTTTT MONMO3      TELAPSE     6666.29 TCPU     6633.37
 NUMERICALLY INTEGRATED DENSITY     93.9999882938     93.9999882072
 TTTTTTTTTTTTTTTTTTTTTTTTTTTTTT NUMDFT      TELAPSE     6675.47 TCPU     6642.51
 CYC  15 ETOT(AU) -4.655798223232E+03 DETOT -4.71E-08 tst  9.70E-10 PX  3.49E-05

 == SCF ENDED - CONVERGENCE ON ENERGY      E(AU) -4.6557982232319E+03 CYCLES  15


 ENERGY EXPRESSION=HARTREE+FOCK EXCH*0.00000+(HSE06      EXCH)*1.00000+PBE        CORR


 TOTAL ENERGY(DFT)(AU)( 15) -4.6557982232319E+03 DE-4.7E-08 tester 9.7E-10
 TTTTTTTTTTTTTTTTTTTTTTTTTTTTTT EDFT        TELAPSE     6675.48 TCPU     6642.52
 
 INFORMATION **** DFTD3 ENERGY **** CALCULATE DFTD3 ENERGY

           DFT-D V3(BJ)
 DF                                         hse06     
 parameters
 s6       :    1.0000
 s8       :    2.3100
 a1       :    0.3820
 a2       :    5.6850
 k1 k3    :   16.0000   -4.0000
 Cutoff   :   50.2022
 CN-Cutoff:   21.1671
 
 Edisp /kcal,au:   -67.6627 -0.10782740

 E6    /kcal :   -28.0022
 E8    /kcal :   -39.6605
 
 INFORMATION **** DFTD3 ENERGY **** NORMAL TERMINATION OF DFTD3 MODULE

 *******************************************************************************

 DFT-D3 DISPERSION ENERGY CORRECTION

 D3 DISPERSION ENERGY (AU)       -1.0782739585269E-01
 TOTAL ENERGY + DISP (AU)        -4.6559060506277E+03

 *******************************************************************************


 NEIGHBORS OF THE NON-EQUIVALENT ATOMS

 N = NUMBER OF NEIGHBORS AT DISTANCE R
    ATOM  N     R/ANG      R/AU   NEIGHBORS (ATOM LABELS AND CELL INDICES)
   1 ZN   4     1.7748     3.3538    7 O    0 0 0    8 O    0 0 0    9 O    0 0 0
                                    10 O    0 0 0
   1 ZN  12     3.4234     6.4692   11 O    1 0 0   11 O    0 1 0   11 O    0 0 1
                                    12 O    0 0 0   12 O    1 0 0   12 O    0 1 0
                                    13 O    0 0 0   13 O    1 0 0   13 O    0 0 1
                                    14 O    0 0 0   14 O    0 1 0   14 O    0 0 1
   1 ZN  12     3.4258     6.4739    3 FE  -1 0 0    3 FE   0-1 0    3 FE   0 0-1
                                     4 FE   0 0 0    4 FE  -1 0 0    4 FE   0-1 0
                                     5 FE   0 0 0    5 FE   0-1 0    5 FE   0 0-1
                                     6 FE   0 0 0    6 FE  -1 0 0    6 FE   0 0-1
   1 ZN   4     3.5782     6.7617    2 ZN   0 0 0    2 ZN   1 0 0    2 ZN   0 1 0
                                     2 ZN   0 0 1
   1 ZN  12     4.5119     8.5263    7 O   -1 0 0    7 O    0-1 0    7 O    0 0-1
                                     8 O   -1 0 1    8 O    0-1 1    8 O    0 0 1
                                     9 O    1 0 0    9 O    1 0-1    9 O    1-1 0
                                    10 O   -1 1 0   10 O    0 1 0   10 O    0 1-1
   1 ZN   4     5.3529    10.1156   11 O    0 0 0   12 O    0 0 1   13 O    0 1 0
                                    14 O    1 0 0

   2 ZN   4     1.7748     3.3538   11 O    0 0 0   12 O    0 0 0   13 O    0 0 0
                                    14 O    0 0 0
   2 ZN  12     3.4234     6.4692    7 O   -1 0 0    7 O    0-1 0    7 O    0 0-1
                                     8 O    0 0 0    8 O   -1 0 0    8 O    0-1 0
                                     9 O    0 0 0    9 O    0-1 0    9 O    0 0-1
                                    10 O    0 0 0   10 O   -1 0 0   10 O    0 0-1
   2 ZN  12     3.4258     6.4739    3 FE  -1-1 0    3 FE  -1 0-1    3 FE   0-1-1
                                     4 FE  -1 0 0    4 FE   0-1 0    4 FE  -1-1 0
                                     5 FE   0-1 0    5 FE   0 0-1    5 FE   0-1-1
                                     6 FE  -1 0 0    6 FE   0 0-1    6 FE  -1 0-1
   2 ZN   4     3.5782     6.7617    1 ZN   0 0 0    1 ZN  -1 0 0    1 ZN   0-1 0
                                     1 ZN   0 0-1
   2 ZN  12     4.5119     8.5263   11 O    1 0 0   11 O    0 1 0   11 O    0 0 1
                                    12 O    1 0-1   12 O    0 1-1   12 O    0 0-1
                                    13 O    1-1 0   13 O    0-1 0   13 O    0-1 1
                                    14 O   -1 0 0   14 O   -1 0 1   14 O   -1 1 0
   2 ZN   4     5.3529    10.1156    7 O    0 0 0    8 O    0 0-1    9 O   -1 0 0
                                    10 O    0-1 0

   3 FE   6     2.0741     3.9196    8 O    0 0 1    9 O    1 0 0   10 O    0 1 0
                                    12 O    1 1 0   13 O    1 0 1   14 O    0 1 1
   3 FE   6     2.9216     5.5209    4 FE   0 0 0    4 FE   0 0 1    5 FE   0 0 0
                                     5 FE   1 0 0    6 FE   0 0 0    6 FE   0 1 0
   3 FE   6     3.4258     6.4739    1 ZN   1 0 0    1 ZN   0 1 0    1 ZN   0 0 1
[...]
  10 O    8  9.241  0.792  1.180  0.695  1.166  1.858  1.815  1.667  0.067
  11 O    8  9.241  0.792  1.180  0.695  1.166  1.858  1.815  1.667  0.067
  12 O    8  9.241  0.792  1.180  0.695  1.166  1.858  1.815  1.667  0.067
  13 O    8  9.241  0.792  1.180  0.695  1.166  1.858  1.815  1.667  0.067
  14 O    8  9.241  0.792  1.180  0.695  1.166  1.858  1.815  1.667  0.067

 OVERLAP POPULATION CONDENSED TO ATOMS FOR FIRST   6 NEIGHBORS

 ATOM A   1 ZN   ATOM B     CELL      R(AB)/AU R(AB)/ANG    OVPOP(AB)
                  7 O    (  0  0  0)     3.354     1.775     0.046
                 11 O    (  1  0  0)     6.469     3.423     0.004
                  3 FE   ( -1  0  0)     6.474     3.426    -0.001
                  2 ZN   (  0  0  0)     6.762     3.578     0.000
                  7 O    ( -1  0  0)     8.526     4.512     0.000
                 11 O    (  0  0  0)    10.116     5.353     0.000

 ATOM A   2 ZN   ATOM B     CELL      R(AB)/AU R(AB)/ANG    OVPOP(AB)
                 11 O    (  0  0  0)     3.354     1.775     0.046
                  7 O    ( -1  0  0)     6.469     3.423     0.004
                  3 FE   ( -1 -1  0)     6.474     3.426    -0.001
                  1 ZN   (  0  0  0)     6.762     3.578     0.000
                 11 O    (  1  0  0)     8.526     4.512     0.000
                  7 O    (  0  0  0)    10.116     5.353     0.000

 ATOM A   3 FE   ATOM B     CELL      R(AB)/AU R(AB)/ANG    OVPOP(AB)
                  8 O    (  0  0  1)     3.920     2.074     0.036
                  4 FE   (  0  0  0)     5.521     2.922     0.002
                  1 ZN   (  1  0  0)     6.474     3.426    -0.001
                  7 O    (  1  0  0)     6.753     3.573     0.000
                  7 O    (  0  0  0)     6.789     3.592     0.000
                  8 O    (  1  0  0)     8.708     4.608     0.000

 ATOM A   4 FE   ATOM B     CELL      R(AB)/AU R(AB)/ANG    OVPOP(AB)
                  7 O    (  0  0  0)     3.920     2.074     0.036
                  3 FE   (  0  0  0)     5.521     2.922     0.002
                  1 ZN   (  0  0  0)     6.474     3.426    -0.001
                  8 O    (  0  0  0)     6.753     3.573     0.000
                  8 O    (  0  0  1)     6.789     3.592     0.000
                  7 O    (  1  0  0)     8.708     4.608    -0.000

 ATOM A   5 FE   ATOM B     CELL      R(AB)/AU R(AB)/ANG    OVPOP(AB)
                  7 O    (  0  0  0)     3.920     2.074     0.035
                  3 FE   (  0  0  0)     5.521     2.922     0.002
                  1 ZN   (  0  0  0)     6.474     3.426    -0.001
                  9 O    (  0  0  0)     6.753     3.573     0.000
                  9 O    (  1  0  0)     6.789     3.592     0.000
                  7 O    (  0  1  0)     8.708     4.608     0.000

 ATOM A   6 FE   ATOM B     CELL      R(AB)/AU R(AB)/ANG    OVPOP(AB)
                  7 O    (  0  0  0)     3.920     2.074     0.036
                  3 FE   (  0  0  0)     5.521     2.922     0.002
                  1 ZN   (  0  0  0)     6.474     3.426    -0.001
                 10 O    (  0  0  0)     6.753     3.573     0.000
                 10 O    (  0  1  0)     6.789     3.592     0.000
                  7 O    (  1  0  0)     8.708     4.608    -0.000

 ATOM A   7 O    ATOM B     CELL      R(AB)/AU R(AB)/ANG    OVPOP(AB)
                  1 ZN   (  0  0  0)     3.354     1.775     0.046
                  4 FE   (  0  0  0)     3.920     2.074     0.036
                  8 O    (  0  0  0)     5.477     2.898    -0.001
                 12 O    (  1  0  0)     5.521     2.922    -0.004
                  8 O    (  0  0  1)     5.565     2.945     0.002
                  2 ZN   (  1  0  0)     6.469     3.423     0.004

 ATOM A   8 O    ATOM B     CELL      R(AB)/AU R(AB)/ANG    OVPOP(AB)
                  1 ZN   (  0  0  0)     3.354     1.775     0.046
                  3 FE   (  0  0 -1)     3.920     2.074     0.036
                  7 O    (  0  0  0)     5.477     2.898    -0.001
                 11 O    (  1  0  0)     5.521     2.922    -0.004
                  7 O    (  0  0 -1)     5.565     2.945     0.002
                  2 ZN   (  0  0  0)     6.469     3.423     0.004

 ATOM A   9 O    ATOM B     CELL      R(AB)/AU R(AB)/ANG    OVPOP(AB)
                  1 ZN   (  0  0  0)     3.354     1.775     0.046
                  3 FE   ( -1  0  0)     3.920     2.074     0.035
                  7 O    (  0  0  0)     5.477     2.898    -0.001
                 11 O    (  0  1  0)     5.521     2.922    -0.003
                  7 O    ( -1  0  0)     5.565     2.945     0.003
                  2 ZN   (  0  0  0)     6.469     3.423     0.004

 ATOM A  10 O    ATOM B     CELL      R(AB)/AU R(AB)/ANG    OVPOP(AB)
                  1 ZN   (  0  0  0)     3.354     1.775     0.046
                  3 FE   (  0 -1  0)     3.920     2.074     0.036
                  7 O    (  0  0  0)     5.477     2.898    -0.001
                 11 O    (  1  0  0)     5.521     2.922    -0.004
                  7 O    (  0 -1  0)     5.565     2.945     0.002
                  2 ZN   (  0  0  0)     6.469     3.423     0.004

 ATOM A  11 O    ATOM B     CELL      R(AB)/AU R(AB)/ANG    OVPOP(AB)
                  2 ZN   (  0  0  0)     3.354     1.775     0.046
                  4 FE   ( -1 -1  0)     3.920     2.074     0.036
                 12 O    (  0  0  0)     5.477     2.898    -0.001
                  8 O    ( -1  0  0)     5.521     2.922    -0.004
                 12 O    (  0  0 -1)     5.565     2.945     0.002
                  1 ZN   ( -1  0  0)     6.469     3.423     0.004

 ATOM A  12 O    ATOM B     CELL      R(AB)/AU R(AB)/ANG    OVPOP(AB)
                  2 ZN   (  0  0  0)     3.354     1.775     0.046
                  3 FE   ( -1 -1  0)     3.920     2.074     0.036
                 11 O    (  0  0  0)     5.477     2.898    -0.001
                  7 O    ( -1  0  0)     5.521     2.922    -0.004
                 11 O    (  0  0  1)     5.565     2.945     0.002
                  1 ZN   (  0  0  0)     6.469     3.423     0.004

 ATOM A  13 O    ATOM B     CELL      R(AB)/AU R(AB)/ANG    OVPOP(AB)
                  2 ZN   (  0  0  0)     3.354     1.775     0.046
                  3 FE   ( -1  0 -1)     3.920     2.074     0.036
                 11 O    (  0  0  0)     5.477     2.898    -0.001
                  7 O    ( -1  0  0)     5.521     2.922    -0.004
                 11 O    (  0  1  0)     5.565     2.945     0.002
                  1 ZN   (  0  0  0)     6.469     3.423     0.004

 ATOM A  14 O    ATOM B     CELL      R(AB)/AU R(AB)/ANG    OVPOP(AB)
                  2 ZN   (  0  0  0)     3.354     1.775     0.046
                  3 FE   (  0 -1 -1)     3.920     2.074     0.035
                 11 O    (  0  0  0)     5.477     2.898    -0.001
                  7 O    (  0 -1  0)     5.521     2.922    -0.003
                 11 O    (  1  0  0)     5.565     2.945     0.003
                  1 ZN   (  0  0  0)     6.469     3.423     0.004
 TTTTTTTTTTTTTTTTTTTTTTTTTTTTTT AFTER FIRST TELAPSE     6678.25 TCPU     6642.65
 MMMMMMMMMMMMMMMMMMMMMMMMMMMMMMMMMMMMMMMMMMMMMMMMMMMMMMMMMMMMMMMMMMMMMMMMMMMMMMM
     ALPHA-BETA ELECTRONS
 MULLIKEN POPULATION ANALYSIS - NO. OF ELECTRONS   -0.000000

  ATOM    Z CHARGE  A.O. POPULATION

   1 ZN  30  0.000  0.000 -0.000  0.000 -0.000  0.000 -0.000 -0.000 -0.000
                    0.000 -0.000  0.000  0.000  0.000 -0.000 -0.000  0.000
                   -0.000 -0.000  0.001 -0.001 -0.001 -0.001  0.001  0.000
                   -0.000 -0.000 -0.000  0.000 -0.000  0.000  0.000  0.000
                   -0.000  0.000  0.000  0.000 -0.000 -0.000  0.000  0.000
   2 ZN  30  0.000  0.000 -0.000  0.000 -0.000  0.000 -0.000 -0.000 -0.000
                    0.000 -0.000  0.000  0.000  0.000 -0.000 -0.000  0.000
                   -0.000 -0.000  0.001 -0.001 -0.001 -0.001  0.001  0.000
                   -0.000 -0.000 -0.000  0.000 -0.000  0.000  0.000  0.000
                   -0.000  0.000  0.000  0.000 -0.000 -0.000  0.000  0.000
   3 FE 226  4.342  0.002  0.017 -0.007  0.021  0.021  0.021 -0.015 -0.015
                   -0.015  0.002  0.003  0.002  0.533  0.509  0.511  0.520
                    0.520  0.316  0.277  0.279  0.296  0.297  0.078  0.027
                    0.030  0.054  0.054
   4 FE 226 -4.343 -0.002 -0.017  0.006 -0.021 -0.021 -0.021  0.015  0.015
                    0.015 -0.002 -0.002 -0.003 -0.530 -0.508 -0.510 -0.522
                   -0.523 -0.316 -0.277 -0.278 -0.297 -0.298 -0.082 -0.029
                   -0.029 -0.052 -0.053
   5 FE 226  4.342  0.002  0.017 -0.007  0.021  0.021  0.021 -0.015 -0.015
                   -0.015  0.003  0.002  0.002  0.533  0.508  0.512  0.519
                    0.521  0.316  0.277  0.280  0.297  0.297  0.078  0.030
                    0.028  0.054  0.053
   6 FE 226 -4.343 -0.002 -0.017  0.006 -0.021 -0.021 -0.021  0.015  0.015
                    0.015 -0.002 -0.003 -0.002 -0.533 -0.508 -0.510 -0.521
                   -0.522 -0.316 -0.277 -0.279 -0.297 -0.298 -0.078 -0.027
                   -0.028 -0.055 -0.056
   7 O    8 -0.114 -0.000  0.000 -0.006 -0.000 -0.030 -0.012 -0.022 -0.022
                   -0.010 -0.016  0.000  0.004  0.000  0.000 -0.000  0.000
                    0.001  0.001
   8 O    8  0.115  0.000 -0.000  0.006  0.000  0.031  0.015  0.020  0.022
                    0.011  0.015  0.002 -0.004 -0.003 -0.000 -0.000 -0.001
                    0.000  0.000
   9 O    8 -0.114 -0.000  0.000 -0.006 -0.000 -0.028 -0.014 -0.022 -0.021
                   -0.011 -0.016  0.000  0.004  0.000  0.000  0.000 -0.000
                    0.000  0.001
  10 O    8  0.115  0.000 -0.000  0.006  0.000  0.030  0.013  0.022  0.022
                    0.010  0.017  0.002 -0.004 -0.003 -0.001 -0.000 -0.001
                    0.000 -0.000
  11 O    8 -0.114 -0.000  0.000 -0.006 -0.000 -0.030 -0.012 -0.022 -0.022
                   -0.010 -0.016  0.000  0.004  0.000  0.000 -0.000  0.000
                    0.001  0.001
  12 O    8  0.115  0.000 -0.000  0.006  0.000  0.031  0.015  0.020  0.022
                    0.011  0.015  0.002 -0.004 -0.003 -0.000 -0.000 -0.001
                    0.000  0.000
  13 O    8  0.115  0.000 -0.000  0.006  0.000  0.030  0.013  0.022  0.022
                    0.010  0.017  0.002 -0.004 -0.003 -0.001 -0.000 -0.001
                    0.000 -0.000
  14 O    8 -0.114 -0.000  0.000 -0.006 -0.000 -0.028 -0.014 -0.022 -0.021
                   -0.011 -0.016  0.000  0.004  0.000  0.000  0.000 -0.000
                    0.000  0.001

  ATOM    Z CHARGE  SHELL POPULATION

   1 ZN  30  0.000  0.000 -0.000  0.000 -0.000  0.000 -0.000 -0.000  0.000
                   -0.000 -0.000  0.000  0.000 -0.000  0.000
   2 ZN  30  0.000  0.000 -0.000  0.000 -0.000  0.000 -0.000 -0.000  0.000
                   -0.000 -0.000  0.000  0.000 -0.000  0.000
   3 FE 226  4.342  0.002  0.017 -0.007  0.063 -0.044  0.006  2.592  1.467
                    0.244
   4 FE 226 -4.343 -0.002 -0.017  0.006 -0.063  0.044 -0.007 -2.593 -1.467
                   -0.244
   5 FE 226  4.342  0.002  0.017 -0.007  0.063 -0.044  0.006  2.592  1.467
                    0.244
   6 FE 226 -4.343 -0.002 -0.017  0.006 -0.063  0.044 -0.007 -2.593 -1.467
                   -0.244
   7 O    8 -0.114 -0.000  0.000 -0.006 -0.000 -0.065 -0.048  0.005  0.001
   8 O    8  0.115  0.000 -0.000  0.006  0.000  0.065  0.049 -0.005 -0.001
   9 O    8 -0.114 -0.000  0.000 -0.006 -0.000 -0.065 -0.048  0.005  0.001
  10 O    8  0.115  0.000 -0.000  0.006  0.000  0.065  0.049 -0.005 -0.001
  11 O    8 -0.114 -0.000  0.000 -0.006 -0.000 -0.065 -0.048  0.005  0.001
  12 O    8  0.115  0.000 -0.000  0.006  0.000  0.065  0.049 -0.005 -0.001
  13 O    8  0.115  0.000 -0.000  0.006  0.000  0.065  0.049 -0.005 -0.001
  14 O    8 -0.114 -0.000  0.000 -0.006 -0.000 -0.065 -0.048  0.005  0.001

 OVERLAP POPULATION CONDENSED TO ATOMS FOR FIRST   6 NEIGHBORS

 ATOM A   1 ZN   ATOM B     CELL      R(AB)/AU R(AB)/ANG    OVPOP(AB)
                  7 O    (  0  0  0)     3.354     1.775     0.001
                 11 O    (  1  0  0)     6.469     3.423     0.000
                  3 FE   ( -1  0  0)     6.474     3.426     0.000
                  2 ZN   (  0  0  0)     6.762     3.578     0.000
                  7 O    ( -1  0  0)     8.526     4.512     0.000
                 11 O    (  0  0  0)    10.116     5.353     0.000

 ATOM A   2 ZN   ATOM B     CELL      R(AB)/AU R(AB)/ANG    OVPOP(AB)
                 11 O    (  0  0  0)     3.354     1.775     0.001
                  7 O    ( -1  0  0)     6.469     3.423     0.000
                  3 FE   ( -1 -1  0)     6.474     3.426     0.000
                  1 ZN   (  0  0  0)     6.762     3.578     0.000
                 11 O    (  1  0  0)     8.526     4.512     0.000
                  7 O    (  0  0  0)    10.116     5.353     0.000

 ATOM A   3 FE   ATOM B     CELL      R(AB)/AU R(AB)/ANG    OVPOP(AB)
                  8 O    (  0  0  1)     3.920     2.074    -0.051
                  4 FE   (  0  0  0)     5.521     2.922     0.000
                  1 ZN   (  1  0  0)     6.474     3.426     0.000
                  7 O    (  1  0  0)     6.753     3.573     0.000
                  7 O    (  0  0  0)     6.789     3.592     0.000
                  8 O    (  1  0  0)     8.708     4.608    -0.000

 ATOM A   4 FE   ATOM B     CELL      R(AB)/AU R(AB)/ANG    OVPOP(AB)
                  7 O    (  0  0  0)     3.920     2.074     0.051
                  3 FE   (  0  0  0)     5.521     2.922     0.000
                  1 ZN   (  0  0  0)     6.474     3.426    -0.000
                  8 O    (  0  0  0)     6.753     3.573    -0.001
                  8 O    (  0  0  1)     6.789     3.592    -0.000
                  7 O    (  1  0  0)     8.708     4.608     0.000

 ATOM A   5 FE   ATOM B     CELL      R(AB)/AU R(AB)/ANG    OVPOP(AB)
                  7 O    (  0  0  0)     3.920     2.074    -0.050
                  3 FE   (  0  0  0)     5.521     2.922    -0.002
                  1 ZN   (  0  0  0)     6.474     3.426     0.000
                  9 O    (  0  0  0)     6.753     3.573     0.000
                  9 O    (  1  0  0)     6.789     3.592     0.000
                  7 O    (  0  1  0)     8.708     4.608    -0.000

 ATOM A   6 FE   ATOM B     CELL      R(AB)/AU R(AB)/ANG    OVPOP(AB)
                  7 O    (  0  0  0)     3.920     2.074     0.051
                  3 FE   (  0  0  0)     5.521     2.922     0.000
                  1 ZN   (  0  0  0)     6.474     3.426    -0.000
                 10 O    (  0  0  0)     6.753     3.573    -0.001
                 10 O    (  0  1  0)     6.789     3.592    -0.000
                  7 O    (  1  0  0)     8.708     4.608     0.000

 ATOM A   7 O    ATOM B     CELL      R(AB)/AU R(AB)/ANG    OVPOP(AB)
                  1 ZN   (  0  0  0)     3.354     1.775     0.001
                  4 FE   (  0  0  0)     3.920     2.074     0.051
                  8 O    (  0  0  0)     5.477     2.898    -0.000
                 12 O    (  1  0  0)     5.521     2.922     0.002
                  8 O    (  0  0  1)     5.565     2.945     0.000
                  2 ZN   (  1  0  0)     6.469     3.423     0.000

 ATOM A   8 O    ATOM B     CELL      R(AB)/AU R(AB)/ANG    OVPOP(AB)
                  1 ZN   (  0  0  0)     3.354     1.775    -0.001
                  3 FE   (  0  0 -1)     3.920     2.074    -0.051
                  7 O    (  0  0  0)     5.477     2.898    -0.000
                 11 O    (  1  0  0)     5.521     2.922     0.002
                  7 O    (  0  0 -1)     5.565     2.945     0.000
                  2 ZN   (  0  0  0)     6.469     3.423     0.000

 ATOM A   9 O    ATOM B     CELL      R(AB)/AU R(AB)/ANG    OVPOP(AB)
                  1 ZN   (  0  0  0)     3.354     1.775     0.001
                  3 FE   ( -1  0  0)     3.920     2.074    -0.050
                  7 O    (  0  0  0)     5.477     2.898     0.001
                 11 O    (  0  1  0)     5.521     2.922     0.004
                  7 O    ( -1  0  0)     5.565     2.945     0.005
                  2 ZN   (  0  0  0)     6.469     3.423     0.000

 ATOM A  10 O    ATOM B     CELL      R(AB)/AU R(AB)/ANG    OVPOP(AB)
                  1 ZN   (  0  0  0)     3.354     1.775    -0.001
                  3 FE   (  0 -1  0)     3.920     2.074    -0.051
                  7 O    (  0  0  0)     5.477     2.898    -0.000
                 11 O    (  1  0  0)     5.521     2.922     0.002
                  7 O    (  0 -1  0)     5.565     2.945     0.000
                  2 ZN   (  0  0  0)     6.469     3.423     0.000

 ATOM A  11 O    ATOM B     CELL      R(AB)/AU R(AB)/ANG    OVPOP(AB)
                  2 ZN   (  0  0  0)     3.354     1.775     0.001
                  4 FE   ( -1 -1  0)     3.920     2.074     0.051
                 12 O    (  0  0  0)     5.477     2.898    -0.000
                  8 O    ( -1  0  0)     5.521     2.922     0.002
                 12 O    (  0  0 -1)     5.565     2.945     0.000
                  1 ZN   ( -1  0  0)     6.469     3.423     0.000

 ATOM A  12 O    ATOM B     CELL      R(AB)/AU R(AB)/ANG    OVPOP(AB)
                  2 ZN   (  0  0  0)     3.354     1.775    -0.001
                  3 FE   ( -1 -1  0)     3.920     2.074    -0.051
                 11 O    (  0  0  0)     5.477     2.898    -0.000
                  7 O    ( -1  0  0)     5.521     2.922     0.002
                 11 O    (  0  0  1)     5.565     2.945     0.000
                  1 ZN   (  0  0  0)     6.469     3.423     0.000

 ATOM A  13 O    ATOM B     CELL      R(AB)/AU R(AB)/ANG    OVPOP(AB)
                  2 ZN   (  0  0  0)     3.354     1.775    -0.001
                  3 FE   ( -1  0 -1)     3.920     2.074    -0.051
                 11 O    (  0  0  0)     5.477     2.898    -0.000
                  7 O    ( -1  0  0)     5.521     2.922     0.002
                 11 O    (  0  1  0)     5.565     2.945     0.000
                  1 ZN   (  0  0  0)     6.469     3.423     0.000

 ATOM A  14 O    ATOM B     CELL      R(AB)/AU R(AB)/ANG    OVPOP(AB)
                  2 ZN   (  0  0  0)     3.354     1.775     0.001
                  3 FE   (  0 -1 -1)     3.920     2.074    -0.050
                 11 O    (  0  0  0)     5.477     2.898     0.001
                  7 O    (  0 -1  0)     5.521     2.922     0.004
                 11 O    (  1  0  0)     5.565     2.945     0.005
                  1 ZN   (  0  0  0)     6.469     3.423     0.000
 EIGENVECTORS IN FORTRAN UNIT 10
 TTTTTTTTTTTTTTTTTTTTTTTTTTTTTT END         TELAPSE     6680.36 TCPU     6644.31
 EEEEEEEEEE TERMINATION  DATE 14 05 2022 TIME 15:38:14.7
NODE    0 CPU TIME =      6644.313
NODE    1 CPU TIME =      6663.789
NODE    2 CPU TIME =      6670.542
NODE    3 CPU TIME =      6671.099
NODE    4 CPU TIME =      6672.194
NODE    5 CPU TIME =      6671.910
NODE    6 CPU TIME =      6672.455
NODE    7 CPU TIME =      6672.003
NODE    8 CPU TIME =      6671.725
NODE    9 CPU TIME =      6672.594
NODE   10 CPU TIME =      6671.154
NODE   11 CPU TIME =      6673.209
NODE   12 CPU TIME =      6670.810
NODE   13 CPU TIME =      6662.683
NODE   14 CPU TIME =      6671.750
NODE   15 CPU TIME =      6671.641
NODE   16 CPU TIME =      6673.184
NODE   17 CPU TIME =      6674.490
NODE   18 CPU TIME =      6573.743
NODE   19 CPU TIME =      6644.147
NODE   20 CPU TIME =      6660.281
NODE   21 CPU TIME =      6662.981
NODE   22 CPU TIME =      6668.503
NODE   23 CPU TIME =      6669.529
NODE   24 CPU TIME =      6671.185
NODE   25 CPU TIME =      6672.006
NODE   26 CPU TIME =      6671.876
NODE   27 CPU TIME =      6671.889
NODE   28 CPU TIME =      6673.627
NODE   29 CPU TIME =      6671.970
NODE   30 CPU TIME =      6673.590
NODE   31 CPU TIME =      6671.312
    TOTAL CPU TIME =    213308.182
