          64 PROCESSORS WORKING

         
 *******************************************************************************
 *                                                                             *
 *                               CRYSTAL17                                     *
 *                      public : 1.0.2 - March 1st, 2018                       *
 *                       HTTP://WWW.CRYSTAL.UNITO.IT                           *
 *                                                                             *
 *                              MAIN AUTHORS                                   *
 *                                                                             *
 *  R. DOVESI(1,11), V.R. SAUNDERS(2), C. ROETTI(1,11), R. ORLANDO(1,11),      *
 *  C.M. ZICOVICH-WILSON(1,3), F. PASCALE(4), B. CIVALLERI(1,11),              *
 *  K. DOLL(5), N.M. HARRISON(2,6), I.J. BUSH(7), Ph. D'ARCO(8),               *
 *  M. LLUNELL(9), M. CAUSA'(10), Y. NOEL(8), L. MASCHIO(1,11), A. ERBA(1,11)  *
 *  M. RE'RAT(14), S. CASASSA(1,11)                                            *
 *                                                                             *
 *        CONTRIBUTIONS TO THE CODE HAVE ALSO BEEN GIVEN BY                    *
 *                                                                             *
 *  M. FERRABONE(1,11), M. DE LA PIERRE(1,11), M. FERRERO(1,11),               *
 *  J. BAIMA(1,11), E. ALBANESE(1,11), M.F. PEINTINGER(12), R. BAST(13),       *
 *  B. KIRTMAN(15), V. LACIVITA(1,11), R. DEMICHELIS(1,16)                     *
 *  G. BRANDEBURG(17), S. SALUSTRO(1,11), G. SANSONE(1,11)                     *
 *  M.T. RUGGIERO(18)                                                          *
 *                                                                             *
 * (1) THEORETICAL CHEMISTRY GROUP - UNIVERSITA' DI TORINO - TORINO (ITALY)    *
 * (2) COMPUTATIONAL SCIENCE & ENGINEERING DEPARTMENT - STFC DARESBURY (UK)    *
 * (3) UNIVERSIDAD AUTONOMA DEL ESTADO DE MORELOS - CUERNAVACA (MEXICO)        *
 * (4) UNIVERSITE' DE LORRAINE - NANCY (FRANCE)                                *
 * (5) UNIVERSITAET STUTTGART- STUTTGART (GERMANY)                             *
 * (6) IMPERIAL COLLEGE - LONDON (UK)                                          *
 * (7) OXFORD E-RESEARCH CENTRE - OXFORD (UK)                                  *
 * (8) UPMC - SORBONNE UNIVERSITES - PARIS (FRANCE)                            *
 * (9) UNIVERSIDAD DE BARCELONA - BARCELONA (SPAIN)                            *
 *(10) UNIVERSITA' DI NAPOLI "FEDERICO II" - NAPOLI (ITALY)                    *
 *(11) NIS - NANOSTRUCTURED INTERFACES AND SURFACES - TORINO (ITALY)           *
 *(12) MPI FUER CHEMISCHE ENERGIEKONVERSION - MUELHEIM AN DER RUHR (GERMANY)   *
 *(13) UNIVERSITY OF TROMSO - TROMSO (NORWAY)                                  *
 *(14) UNIVERSITE' DE PAU ET DES PAYS DE L'ADOUR - PAU (FRANCE)                *
 *(15) UNIVERSITY OF CALIFORNIA SANTA BARBARA - SANTA BARBARA (USA)            *
 *(16) CURTIN UNIVERSITY - PERTH (AUSTRALIA)                                   *
 *(17) UNIVERSITY COLLEGE LONDON - LONDON (UK)                                 *
 *(18) CAMBRIDGE UNIVERSITY - CAMBRIDGE (UK)                                   *
 *                                                                             *
 *******************************************************************************
 EEEEEEEEEE STARTING  DATE 05 04 2023 TIME 23:29:04.7
 cBN_bulk_opt_3x3_v_N_v_B_Pt                                                     

 CRYSTAL CALCULATION
 (INPUT ACCORDING TO THE INTERNATIONAL TABLES FOR X-RAY CRYSTALLOGRAPHY)
 CRYSTAL FAMILY                       :  TRICLINIC   
 CRYSTAL CLASS  (GROTH - 1921)        :  TRICLINIC PEDIAL                     

 SPACE GROUP (NONCENTROSYMMETRIC)     :  P 1             

 LATTICE PARAMETERS  (ANGSTROMS AND DEGREES) - CONVENTIONAL CELL
        A           B           C        ALPHA        BETA       GAMMA
     7.69191     7.69191     7.69191    60.00000    60.00000    60.00000


 NUMBER OF IRREDUCIBLE ATOMS IN THE CONVENTIONAL CELL:   53

 INPUT COORDINATES

 ATOM AT. N.              COORDINATES
   1   5     0.000000000000E+00  0.000000000000E+00  0.000000000000E+00
   2   5     0.000000000000E+00  0.000000000000E+00  3.333330000000E-01
   3   5     0.000000000000E+00  0.000000000000E+00  6.666670000000E-01
   4   5     0.000000000000E+00  3.333330000000E-01  0.000000000000E+00
   5   5     0.000000000000E+00  3.333330000000E-01  3.333330000000E-01
   6   5     0.000000000000E+00  3.333330000000E-01  6.666670000000E-01
   7   5     0.000000000000E+00  6.666670000000E-01  0.000000000000E+00
   8   5     0.000000000000E+00  6.666670000000E-01  3.333330000000E-01
   9   5     0.000000000000E+00  6.666670000000E-01  6.666670000000E-01
  10   5     3.333330000000E-01  0.000000000000E+00  0.000000000000E+00
  11   5     3.333330000000E-01  0.000000000000E+00  3.333330000000E-01
  12   5     3.333330000000E-01  0.000000000000E+00  6.666670000000E-01
  13   5     3.333330000000E-01  3.333330000000E-01  0.000000000000E+00
  14   5     3.333330000000E-01  3.333330000000E-01  3.333330000000E-01
  15   5     3.333330000000E-01  3.333330000000E-01  6.666670000000E-01
  16   5     3.333330000000E-01  6.666670000000E-01  0.000000000000E+00
  17   5     3.333330000000E-01  6.666670000000E-01  6.666670000000E-01
  18   5     6.666670000000E-01  0.000000000000E+00  0.000000000000E+00
  19   5     6.666670000000E-01  0.000000000000E+00  3.333330000000E-01
  20   5     6.666670000000E-01  0.000000000000E+00  6.666670000000E-01
  21   5     6.666670000000E-01  3.333330000000E-01  0.000000000000E+00
  22   5     6.666670000000E-01  3.333330000000E-01  3.333330000000E-01
  23   5     6.666670000000E-01  3.333330000000E-01  6.666670000000E-01
  24   5     6.666670000000E-01  6.666670000000E-01  0.000000000000E+00
  25   5     6.666670000000E-01  6.666670000000E-01  3.333330000000E-01
  26   5     6.666670000000E-01  6.666670000000E-01  6.666670000000E-01
  27   7     9.166670000000E-01  9.166670000000E-01  9.166670000000E-01
  28   7     9.166670000000E-01  9.166670000000E-01  2.500000000000E-01
  29   7     9.166670000000E-01  9.166670000000E-01  5.833330000000E-01
  30   7     9.166670000000E-01  2.500000000000E-01  9.166670000000E-01
  31   7     9.166670000000E-01  2.500000000000E-01  2.500000000000E-01
  32   7     9.166670000000E-01  2.500000000000E-01  5.833330000000E-01
  33   7     9.166670000000E-01  5.833330000000E-01  9.166670000000E-01
  34   7     9.166670000000E-01  5.833330000000E-01  2.500000000000E-01
  35   7     9.166670000000E-01  5.833330000000E-01  5.833330000000E-01
  36   7     2.500000000000E-01  9.166670000000E-01  9.166670000000E-01
  37   7     2.500000000000E-01  9.166670000000E-01  2.500000000000E-01
  38   7     2.500000000000E-01  9.166670000000E-01  5.833330000000E-01
  39   7     2.500000000000E-01  2.500000000000E-01  9.166670000000E-01
  40   7     2.500000000000E-01  2.500000000000E-01  2.500000000000E-01
  41   7     2.500000000000E-01  2.500000000000E-01  5.833330000000E-01
  42   7     2.500000000000E-01  5.833330000000E-01  9.166670000000E-01
  43   7     2.500000000000E-01  5.833330000000E-01  2.500000000000E-01
  44   7     5.833330000000E-01  9.166670000000E-01  9.166670000000E-01
  45   7     5.833330000000E-01  9.166670000000E-01  2.500000000000E-01
  46   7     5.833330000000E-01  9.166670000000E-01  5.833330000000E-01
  47   7     5.833330000000E-01  2.500000000000E-01  9.166670000000E-01
  48   7     5.833330000000E-01  2.500000000000E-01  2.500000000000E-01
  49   7     5.833330000000E-01  2.500000000000E-01  5.833330000000E-01
  50   7     5.833330000000E-01  5.833330000000E-01  9.166670000000E-01
  51   7     5.833330000000E-01  5.833330000000E-01  2.500000000000E-01
  52   7     5.833330000000E-01  5.833330000000E-01  5.833330000000E-01
  53 278     2.916650000000E-01  6.250000000000E-01  4.583300000000E-01

 *******************************************************************************

 << INFORMATION >>: FROM NOW ON, ALL COORDINATES REFER TO THE PRIMITIVE CELL

 *******************************************************************************

 LATTICE PARAMETERS  (ANGSTROMS AND DEGREES) - PRIMITIVE CELL
       A          B          C        ALPHA      BETA     GAMMA        VOLUME
    7.69191    7.69191    7.69191    60.00000  60.00000  60.00000    321.801396

 COORDINATES OF THE EQUIVALENT ATOMS (FRACTIONAL UNITS)

 N. ATOM EQUIV AT. N.          X                  Y                  Z

   1   1   1    5 B     0.00000000000E+00  0.00000000000E+00  0.00000000000E+00

   2   2   1    5 B     0.00000000000E+00  0.00000000000E+00  3.33333000000E-01

   3   3   1    5 B     0.00000000000E+00  0.00000000000E+00 -3.33333000000E-01

   4   4   1    5 B     0.00000000000E+00  3.33333000000E-01  0.00000000000E+00

   5   5   1    5 B     0.00000000000E+00  3.33333000000E-01  3.33333000000E-01

   6   6   1    5 B     0.00000000000E+00  3.33333000000E-01 -3.33333000000E-01

   7   7   1    5 B     0.00000000000E+00 -3.33333000000E-01  0.00000000000E+00

   8   8   1    5 B     0.00000000000E+00 -3.33333000000E-01  3.33333000000E-01

   9   9   1    5 B     0.00000000000E+00 -3.33333000000E-01 -3.33333000000E-01

  10  10   1    5 B     3.33333000000E-01  0.00000000000E+00  0.00000000000E+00

  11  11   1    5 B     3.33333000000E-01  0.00000000000E+00  3.33333000000E-01

  12  12   1    5 B     3.33333000000E-01  0.00000000000E+00 -3.33333000000E-01

  13  13   1    5 B     3.33333000000E-01  3.33333000000E-01  0.00000000000E+00

  14  14   1    5 B     3.33333000000E-01  3.33333000000E-01  3.33333000000E-01

  15  15   1    5 B     3.33333000000E-01  3.33333000000E-01 -3.33333000000E-01

  16  16   1    5 B     3.33333000000E-01 -3.33333000000E-01  0.00000000000E+00

  17  17   1    5 B     3.33333000000E-01 -3.33333000000E-01 -3.33333000000E-01

  18  18   1    5 B    -3.33333000000E-01  0.00000000000E+00  0.00000000000E+00

  19  19   1    5 B    -3.33333000000E-01  0.00000000000E+00  3.33333000000E-01

  20  20   1    5 B    -3.33333000000E-01  0.00000000000E+00 -3.33333000000E-01

  21  21   1    5 B    -3.33333000000E-01  3.33333000000E-01  0.00000000000E+00

  22  22   1    5 B    -3.33333000000E-01  3.33333000000E-01  3.33333000000E-01

  23  23   1    5 B    -3.33333000000E-01  3.33333000000E-01 -3.33333000000E-01

  24  24   1    5 B    -3.33333000000E-01 -3.33333000000E-01  0.00000000000E+00

  25  25   1    5 B    -3.33333000000E-01 -3.33333000000E-01  3.33333000000E-01

  26  26   1    5 B    -3.33333000000E-01 -3.33333000000E-01 -3.33333000000E-01

  27  27   1    7 N    -8.33330000000E-02 -8.33330000000E-02 -8.33330000000E-02

  28  28   1    7 N    -8.33330000000E-02 -8.33330000000E-02  2.50000000000E-01

  29  29   1    7 N    -8.33330000000E-02 -8.33330000000E-02 -4.16667000000E-01

  30  30   1    7 N    -8.33330000000E-02  2.50000000000E-01 -8.33330000000E-02

  31  31   1    7 N    -8.33330000000E-02  2.50000000000E-01  2.50000000000E-01

  32  32   1    7 N    -8.33330000000E-02  2.50000000000E-01 -4.16667000000E-01

  33  33   1    7 N    -8.33330000000E-02 -4.16667000000E-01 -8.33330000000E-02

  34  34   1    7 N    -8.33330000000E-02 -4.16667000000E-01  2.50000000000E-01

  35  35   1    7 N    -8.33330000000E-02 -4.16667000000E-01 -4.16667000000E-01

  36  36   1    7 N     2.50000000000E-01 -8.33330000000E-02 -8.33330000000E-02

  37  37   1    7 N     2.50000000000E-01 -8.33330000000E-02  2.50000000000E-01

  38  38   1    7 N     2.50000000000E-01 -8.33330000000E-02 -4.16667000000E-01

  39  39   1    7 N     2.50000000000E-01  2.50000000000E-01 -8.33330000000E-02

  40  40   1    7 N     2.50000000000E-01  2.50000000000E-01  2.50000000000E-01

  41  41   1    7 N     2.50000000000E-01  2.50000000000E-01 -4.16667000000E-01

  42  42   1    7 N     2.50000000000E-01 -4.16667000000E-01 -8.33330000000E-02

  43  43   1    7 N     2.50000000000E-01 -4.16667000000E-01  2.50000000000E-01

  44  44   1    7 N    -4.16667000000E-01 -8.33330000000E-02 -8.33330000000E-02

  45  45   1    7 N    -4.16667000000E-01 -8.33330000000E-02  2.50000000000E-01

  46  46   1    7 N    -4.16667000000E-01 -8.33330000000E-02 -4.16667000000E-01

  47  47   1    7 N    -4.16667000000E-01  2.50000000000E-01 -8.33330000000E-02

  48  48   1    7 N    -4.16667000000E-01  2.50000000000E-01  2.50000000000E-01

  49  49   1    7 N    -4.16667000000E-01  2.50000000000E-01 -4.16667000000E-01

  50  50   1    7 N    -4.16667000000E-01 -4.16667000000E-01 -8.33330000000E-02

  51  51   1    7 N    -4.16667000000E-01 -4.16667000000E-01  2.50000000000E-01

  52  52   1    7 N    -4.16667000000E-01 -4.16667000000E-01 -4.16667000000E-01

  53  53   1  278 PT    2.91665000000E-01 -3.75000000000E-01  4.58330000000E-01

 NUMBER OF SYMMETRY OPERATORS         :    1
 *******************************************************************************
 * GEOMETRY EDITING - INPUT COORDINATES ARE GIVEN IN ANGSTROM         
 *******************************************************************************
 INFORMATION **** NEW DEFAULT **** FINALRUN 4 FOR GEOMETRY OPTIMIZATIONS
 INFORMATION **** NEW DEFAULT **** OPTGEOM OPTIMIZES BOTH ATOMIC COORDINATES AND CELL PARAMETERS
 INFORMATION **** NEW DEFAULT **** TOL. ON ATOMIC DISP TO REDEFINE REF. GEOMETRY: 0.8 Angs
 INFORMATION **** NEW DEFAULT **** N POINTS TO REDEFINE REF. GEOMETRY: N OF OPT DEGS OF FREEDOM
 INFORMATION **** NEW DEFAULT **** TOL. ON ENERGY TO REDEFINE REF. GEOMETRY: 10**-3*(5*N. ATOMS)
 INFORMATION **** FULLOPTG **** FULL OPTIMIZATION (ATOMS AND CELL PARAMETERS)
 INFORMATION **** MAXCYCLE ****   MAXIMUM NUMBER OF OPTIMIZATION CYCLES         800

 IMPORTANT INFORMATION:
 THE COORDINATE SYSTEM ADOPTED IN THE OPTIMIZATION IS NOT IN
 GENERAL HOMOGENEOUS UNITS. FOR THIS REASON THE GRADIENT AND 
 HESSIAN MATRIX IN TERMS OF THIS SYSTEM ARE GIVEN WITHOUT
 UNITS. FOR MORE DETAILS SEE THE MANUAL.

 *******************************************************************************
 COMBINED CELL/ATOM OPTIMIZATION CONTROL

 INITIAL TRUST RADIUS         0.50000 MAXIMUM TRUST RADIUS               4.00000
 MAXIMUM GRADIENT COMPONENT   0.00045 MAXIMUM DISPLACEMENT COMPONENT     0.00180
 R.M.S. OF GRADIENT COMPONENT 0.00030 R.M.S. OF DISPLACEMENT COMPONENTS  0.00120
 THRESHOLD ON ENERGY CHANGE 0.100E-06 EXTRAPOLATING POLYNOMIAL ORDER           2
 MAXIMUM ALLOWED NUMBER OF STEPS  800 SORTING OF ENERGY POINTS:               NO
 ANALYTICAL  GRADIENT                 HESSIAN UPDATING                      BFGS
 STEP SIZE NUMERICAL GRADIENT 0.00100
 INITIAL HESSIAN MATRIX: SCHLEGEL MODEL 2
 *******************************************************************************


 GCALCO - MAX INDICES DIRECT LATTICE VECTOR    14    14    14
 NO.OF VECTORS CREATED 6999 STARS  105 RMAX   153.83041 BOHR

 GEOMETRY FOR WAVE FUNCTION - DIMENSIONALITY OF THE SYSTEM    3
 (NON PERIODIC DIRECTION: LATTICE PARAMETER FORMALLY SET TO 500)
 *******************************************************************************
 LATTICE PARAMETERS (ANGSTROMS AND DEGREES) - BOHR = 0.5291772083 ANGSTROM
 PRIMITIVE CELL - CENTRING CODE 1/0 VOLUME=   321.801396 - DENSITY  4.362 g/cm^3
         A              B              C           ALPHA      BETA       GAMMA 
     7.69191200     7.69191200     7.69191200    60.000000  60.000000  60.000000
 *******************************************************************************
 ATOMS IN THE ASYMMETRIC UNIT   53 - ATOMS IN THE UNIT CELL:   53
     ATOM                 X/A                 Y/B                 Z/C    
 *******************************************************************************
      1 T   5 B     0.000000000000E+00  0.000000000000E+00  0.000000000000E+00
      2 T   5 B    -2.775557561563E-17 -5.551115123126E-17  3.333330000000E-01
      3 T   5 B     2.775557561563E-17  5.551115123126E-17 -3.333330000000E-01
      4 T   5 B     0.000000000000E+00  3.333330000000E-01  0.000000000000E+00
      5 T   5 B    -2.775557561563E-17  3.333330000000E-01  3.333330000000E-01
      6 T   5 B     2.775557561563E-17  3.333330000000E-01 -3.333330000000E-01
      7 T   5 B     0.000000000000E+00 -3.333330000000E-01  0.000000000000E+00
      8 T   5 B    -2.775557561563E-17 -3.333330000000E-01  3.333330000000E-01
      9 T   5 B     2.775557561563E-17 -3.333330000000E-01 -3.333330000000E-01
     10 T   5 B     3.333330000000E-01 -2.775557561563E-17  0.000000000000E+00
     11 T   5 B     3.333330000000E-01  1.387778780781E-17  3.333330000000E-01
     12 T   5 B     3.333330000000E-01  4.163336342344E-17 -3.333330000000E-01
     13 T   5 B     3.333330000000E-01  3.333330000000E-01  0.000000000000E+00
     14 T   5 B     3.333330000000E-01  3.333330000000E-01  3.333330000000E-01
     15 T   5 B     3.333330000000E-01  3.333330000000E-01 -3.333330000000E-01
     16 T   5 B     3.333330000000E-01 -3.333330000000E-01  0.000000000000E+00
     17 T   5 B     3.333330000000E-01 -3.333330000000E-01 -3.333330000000E-01
     18 T   5 B    -3.333330000000E-01  2.775557561563E-17  0.000000000000E+00
     19 T   5 B    -3.333330000000E-01 -4.163336342344E-17  3.333330000000E-01
     20 T   5 B    -3.333330000000E-01  6.938893903907E-17 -3.333330000000E-01
     21 T   5 B    -3.333330000000E-01  3.333330000000E-01  0.000000000000E+00
     22 T   5 B    -3.333330000000E-01  3.333330000000E-01  3.333330000000E-01
     23 T   5 B    -3.333330000000E-01  3.333330000000E-01 -3.333330000000E-01
     24 T   5 B    -3.333330000000E-01 -3.333330000000E-01  0.000000000000E+00
     25 T   5 B    -3.333330000000E-01 -3.333330000000E-01  3.333330000000E-01
     26 T   5 B    -3.333330000000E-01 -3.333330000000E-01 -3.333330000000E-01
     27 T   7 N    -8.333300000000E-02 -8.333300000000E-02 -8.333300000000E-02
     28 T   7 N    -8.333300000000E-02 -8.333300000000E-02  2.500000000000E-01
     29 T   7 N    -8.333300000000E-02 -8.333300000000E-02 -4.166670000000E-01
     30 T   7 N    -8.333300000000E-02  2.500000000000E-01 -8.333300000000E-02
     31 T   7 N    -8.333300000000E-02  2.500000000000E-01  2.500000000000E-01
     32 T   7 N    -8.333300000000E-02  2.500000000000E-01 -4.166670000000E-01
     33 T   7 N    -8.333300000000E-02 -4.166670000000E-01 -8.333300000000E-02
     34 T   7 N    -8.333300000000E-02 -4.166670000000E-01  2.500000000000E-01
     35 T   7 N    -8.333300000000E-02 -4.166670000000E-01 -4.166670000000E-01
     36 T   7 N     2.500000000000E-01 -8.333300000000E-02 -8.333300000000E-02
     37 T   7 N     2.500000000000E-01 -8.333300000000E-02  2.500000000000E-01
     38 T   7 N     2.500000000000E-01 -8.333300000000E-02 -4.166670000000E-01
     39 T   7 N     2.500000000000E-01  2.500000000000E-01 -8.333300000000E-02
     40 T   7 N     2.500000000000E-01  2.500000000000E-01  2.500000000000E-01
     41 T   7 N     2.500000000000E-01  2.500000000000E-01 -4.166670000000E-01
     42 T   7 N     2.500000000000E-01 -4.166670000000E-01 -8.333300000000E-02
     43 T   7 N     2.500000000000E-01 -4.166670000000E-01  2.500000000000E-01
     44 T   7 N    -4.166670000000E-01 -8.333300000000E-02 -8.333300000000E-02
     45 T   7 N    -4.166670000000E-01 -8.333300000000E-02  2.500000000000E-01
     46 T   7 N    -4.166670000000E-01 -8.333300000000E-02 -4.166670000000E-01
     47 T   7 N    -4.166670000000E-01  2.500000000000E-01 -8.333300000000E-02
     48 T   7 N    -4.166670000000E-01  2.500000000000E-01  2.500000000000E-01
     49 T   7 N    -4.166670000000E-01  2.500000000000E-01 -4.166670000000E-01
     50 T   7 N    -4.166670000000E-01 -4.166670000000E-01 -8.333300000000E-02
     51 T   7 N    -4.166670000000E-01 -4.166670000000E-01  2.500000000000E-01
     52 T   7 N    -4.166670000000E-01 -4.166670000000E-01 -4.166670000000E-01
     53 T 278 PT    2.916650000000E-01 -3.750000000000E-01  4.583300000000E-01

 T = ATOM BELONGING TO THE ASYMMETRIC UNIT

 ****    1 SYMMOPS - TRANSLATORS IN FRACTIONAL UNITS
 **** MATRICES AND TRANSLATORS IN THE CRYSTALLOGRAPHIC REFERENCE FRAME
   V INV                    ROTATION MATRICES                   TRANSLATORS
   1   1  1.00  0.00  0.00  0.00  1.00  0.00 -0.00  0.00  1.00  0.00  0.00  0.00

 DIRECT LATTICE VECTORS CARTESIAN COMPONENTS (ANGSTROM)
          X                    Y                    Z
   0.666139119567E+01   0.384595600000E+01   0.000000000000E+00
   0.000000000000E+00   0.769191200000E+01   0.000000000000E+00
   0.222046373189E+01   0.384595600000E+01   0.628041984880E+01


 CARTESIAN COORDINATES - PRIMITIVE CELL
 *******************************************************************************
 *      ATOM          X(ANGSTROM)         Y(ANGSTROM)         Z(ANGSTROM)
 *******************************************************************************
    1     5 B     0.000000000000E+00  0.000000000000E+00  0.000000000000E+00
    2     5 B     7.401538371426E-01  1.281984051348E+00  2.093471189459E+00
    3     5 B    -7.401538371426E-01 -1.281984051348E+00 -2.093471189459E+00
    4     5 B     0.000000000000E+00  2.563968102696E+00  0.000000000000E+00
    5     5 B     7.401538371426E-01 -3.845959845956E+00  2.093471189459E+00
    6     5 B    -7.401538371426E-01  1.281984051348E+00 -2.093471189459E+00
    7     5 B     0.000000000000E+00 -2.563968102696E+00  0.000000000000E+00
    8     5 B     7.401538371426E-01 -1.281984051348E+00  2.093471189459E+00
    9     5 B    -7.401538371426E-01 -3.845952154044E+00 -2.093471189459E+00
   10     5 B     2.220461511428E+00  1.281984051348E+00  0.000000000000E+00
   11     5 B    -3.700775847104E+00 -1.281987897304E+00  2.093471189459E+00
   12     5 B     1.480307674285E+00  0.000000000000E+00 -2.093471189459E+00
   13     5 B    -4.440929684247E+00 -3.845956001101E-06  0.000000000000E+00
   14     5 B    -3.700775847104E+00  1.281980205392E+00  2.093471189459E+00
   15     5 B     1.480307674285E+00  2.563968102696E+00 -2.093471189459E+00
   16     5 B     2.220461511428E+00 -1.281984051348E+00  0.000000000000E+00
   17     5 B     1.480307674285E+00 -2.563968102696E+00 -2.093471189459E+00
   18     5 B    -2.220461511428E+00 -1.281984051348E+00  0.000000000000E+00
   19     5 B    -1.480307674285E+00  0.000000000000E+00  2.093471189459E+00
   20     5 B    -2.960615348570E+00 -2.563968102696E+00 -2.093471189459E+00
   21     5 B    -2.220461511428E+00  1.281984051348E+00  0.000000000000E+00
   22     5 B    -1.480307674285E+00  2.563968102696E+00  2.093471189459E+00
   23     5 B    -2.960615348570E+00 -4.700037766092E-16 -2.093471189459E+00
   24     5 B    -2.220461511428E+00 -3.845952154044E+00  0.000000000000E+00
   25     5 B    -1.480307674285E+00 -2.563968102696E+00  2.093471189459E+00
   26     5 B    -7.401516166788E-01 -1.281980205392E+00  4.186948659338E+00
   27     7 N    -7.401516166788E-01 -1.281980205392E+00 -5.233662272598E-01
   28     7 N     2.220463732060E-06  3.845956000161E-06  1.570104962199E+00
   29     7 N    -1.480307674285E+00 -2.563968102696E+00 -2.616843697139E+00
   30     7 N    -7.401516166788E-01  1.281987897304E+00 -5.233662272598E-01
   31     7 N     2.220463732060E-06  2.563971948652E+00  1.570104962199E+00
   32     7 N    -1.480307674285E+00  0.000000000000E+00 -2.616843697139E+00
   33     7 N    -7.401516166788E-01 -3.845956000000E+00 -5.233662272598E-01
   34     7 N     2.220463732060E-06 -2.563971948652E+00  1.570104962199E+00
   35     7 N     7.401560576063E-01 -1.281987897304E+00  3.663576151658E+00
   36     7 N     1.480309894749E+00  3.845956000102E-06 -5.233662272598E-01
   37     7 N     2.220463731891E+00  1.281987897304E+00  1.570104962199E+00
   38     7 N     7.401538371426E-01 -1.281984051348E+00 -2.616843697139E+00
   39     7 N     1.480309894749E+00  2.563971948652E+00 -5.233662272598E-01
   40     7 N    -4.440927463783E+00 -4.700037766092E-16  1.570104962199E+00
   41     7 N     7.401538371426E-01  1.281984051348E+00 -2.616843697139E+00
   42     7 N     1.480309894749E+00 -2.563971948652E+00 -5.233662272598E-01
   43     7 N     2.220463731891E+00 -1.281987897304E+00  1.570104962199E+00
   44     7 N    -2.960619789498E+00 -2.563968102696E+00 -5.233662272598E-01
   45     7 N    -2.220465952355E+00 -1.281984051348E+00  1.570104962199E+00
   46     7 N    -1.480312115213E+00  0.000000000000E+00  3.663576151658E+00
   47     7 N    -2.960619789498E+00 -4.112533045331E-16 -5.233662272598E-01
   48     7 N    -2.220465952355E+00  1.281984051348E+00  1.570104962199E+00
   49     7 N    -3.700775847104E+00 -1.281987897304E+00 -2.616843697139E+00
   50     7 N    -2.960619789498E+00  2.563968102696E+00 -5.233662272598E-01
   51     7 N    -2.220465952355E+00 -3.845959845956E+00  1.570104962199E+00
   52     7 N    -1.480312115213E+00 -2.563975794608E+00  3.663576151658E+00
   53   278 PT    2.960599805324E+00 -1.922977999916E-05  2.878504829299E+00

 *******************************************************************************
 *** PSEUDOPOTENTIAL INFORMATION ***
 *******************************************************************************

 ATOMIC NUMBER  78, NUCLEAR CHARGE 18.000, GIVEN IN INPUT       PSEUDOPOTENTIAL
   TYPE       EXPONENT      COEFF.    N      EXPONENT      COEFF.    N
  P0 TMS    14.6045000  429.6460870   0     7.2182870   73.1568840   0
  P1 TMS    11.5771620   88.0229170   0    10.8838430  175.9981960   0
             6.4244030   13.6822740   0     5.2241980   27.4146510   0
  P2 TMS     7.6996100   43.5578520   0     7.5508080   65.3691080   0
             3.9611640    7.0185960   0     3.8727770   11.3917330   0
  P3 TMS     3.3798690   10.7102200   0     3.3262550   14.2781250   0
  P4 TMS     5.4520200  -11.6517490   0     5.4125850  -14.3755250   0

 *******************************************************************************
 LOCAL ATOMIC FUNCTIONS BASIS SET
 *******************************************************************************
   ATOM   X(AU)   Y(AU)   Z(AU)  N. TYPE  EXPONENT  S COEF   P COEF   D/F/G COEF
 *******************************************************************************
   1 B    0.000   0.000   0.000
                                  1 S  
                                         8.393E+02-5.593E-03 0.000E+00 0.000E+00
                                         1.263E+02-4.157E-02 0.000E+00 0.000E+00
                                         2.862E+01-1.830E-01 0.000E+00 0.000E+00
                                         7.879E+00-4.654E-01 0.000E+00 0.000E+00
                                         2.409E+00-4.417E-01 0.000E+00 0.000E+00
                                  2 S  
                                         1.028E+00 1.000E+00 0.000E+00 0.000E+00
                                  3 S  
                                         2.245E-01 1.000E+00 0.000E+00 0.000E+00
                           4-     6 P  
                                         6.033E+00 0.000E+00-3.560E-02 0.000E+00
                                         1.250E+00 0.000E+00-1.990E-01 0.000E+00
                                         3.387E-01 0.000E+00-5.085E-01 0.000E+00
                           7-     9 P  
                                         2.288E-01 0.000E+00 1.000E+00 0.000E+00
                          10-    14 D  
                                         5.684E-01 0.000E+00 0.000E+00 1.000E+00
   2 B    1.399   2.423   3.956
   3 B   -1.399  -2.423  -3.956
   4 B    0.000   4.845   0.000
   5 B    1.399  -7.268   3.956
   6 B   -1.399   2.423  -3.956
   7 B    0.000  -4.845   0.000
   8 B    1.399  -2.423   3.956
   9 B   -1.399  -7.268  -3.956
  10 B    4.196   2.423   0.000
  11 B   -6.993  -2.423   3.956
  12 B    2.797   0.000  -3.956
  13 B   -8.392  -0.000   0.000
  14 B   -6.993   2.423   3.956
  15 B    2.797   4.845  -3.956
  16 B    4.196  -2.423   0.000
  17 B    2.797  -4.845  -3.956
  18 B   -4.196  -2.423   0.000
  19 B   -2.797   0.000   3.956
  20 B   -5.595  -4.845  -3.956
  21 B   -4.196   2.423   0.000
  22 B   -2.797   4.845   3.956
  23 B   -5.595  -0.000  -3.956
  24 B   -4.196  -7.268   0.000
  25 B   -2.797  -4.845   3.956
  26 B   -1.399  -2.423   7.912
  27 N   -1.399  -2.423  -0.989
                                365 S  
                                         1.713E+03-5.393E-03 0.000E+00 0.000E+00
                                         2.576E+02-4.022E-02 0.000E+00 0.000E+00
                                         5.846E+01-1.793E-01 0.000E+00 0.000E+00
                                         1.620E+01-4.638E-01 0.000E+00 0.000E+00
                                         5.005E+00-4.417E-01 0.000E+00 0.000E+00
                                366 S  
                                         6.349E-01 1.000E+00 0.000E+00 0.000E+00
                                367 S  
                                         2.108E-01 1.000E+00 0.000E+00 0.000E+00
                         368-   370 P  
                                         1.357E+01 0.000E+00-4.007E-02 0.000E+00
                                         2.926E+00 0.000E+00-2.181E-01 0.000E+00
                                         7.993E-01 0.000E+00-5.129E-01 0.000E+00
                         371-   373 P  
                                         2.392E-01 0.000E+00 1.000E+00 0.000E+00
                         374-   378 D  
                                         5.120E-01 0.000E+00 0.000E+00 1.000E+00
  28 N    0.000   0.000   2.967
  29 N   -2.797  -4.845  -4.945
  30 N   -1.399   2.423  -0.989
  31 N    0.000   4.845   2.967
  32 N   -2.797   0.000  -4.945
  33 N   -1.399  -7.268  -0.989
  34 N    0.000  -4.845   2.967
  35 N    1.399  -2.423   6.923
  36 N    2.797   0.000  -0.989
  37 N    4.196   2.423   2.967
  38 N    1.399  -2.423  -4.945
  39 N    2.797   4.845  -0.989
  40 N   -8.392  -0.000   2.967
  41 N    1.399   2.423  -4.945
  42 N    2.797  -4.845  -0.989
  43 N    4.196  -2.423   2.967
  44 N   -5.595  -4.845  -0.989
  45 N   -4.196  -2.423   2.967
  46 N   -2.797   0.000   6.923
  47 N   -5.595  -0.000  -0.989
  48 N   -4.196   2.423   2.967
  49 N   -6.993  -2.423  -4.945
  50 N   -5.595   4.845  -0.989
  51 N   -4.196  -7.268   2.967
  52 N   -2.797  -4.845   6.923
  53 PT   5.595  -0.000   5.440
                                729 S  
                                         3.000E+01 2.715E-01 0.000E+00 0.000E+00
                                         2.700E+01-4.223E-01 0.000E+00 0.000E+00
                                         1.441E+01 4.436E-01 0.000E+00 0.000E+00
                                730 S  
                                         5.763E+00 1.000E+00 0.000E+00 0.000E+00
                                731 S  
                                         1.068E+00 1.000E+00 0.000E+00 0.000E+00
                                732 S  
                                         1.537E-01 1.000E+00 0.000E+00 0.000E+00
                         733-   735 P  
                                         1.550E+01 0.000E+00-1.567E-01 0.000E+00
                                         1.400E+01 0.000E+00 2.385E-01 0.000E+00
                                         6.116E+00 0.000E+00-3.104E-01 0.000E+00
                                         1.572E+00 0.000E+00 5.647E-01 0.000E+00
                         736-   738 P  
                                         7.723E-01 0.000E+00 1.000E+00 0.000E+00
                         739-   741 P  
                                         2.529E-01 0.000E+00 1.000E+00 0.000E+00
                         742-   746 D  
                                         8.321E+00 0.000E+00 0.000E+00 6.295E-02
                                         7.421E+00 0.000E+00 0.000E+00-9.027E-02
                                         1.657E+00 0.000E+00 0.000E+00 1.681E-01
                                         7.394E-01 0.000E+00 0.000E+00 2.505E-01
                         747-   751 D  
                                         1.125E+00 0.000E+00 0.000E+00 1.000E+00
                         752-   756 D  
                                         2.756E-01 0.000E+00 0.000E+00 1.000E+00
                         757-   763 F  
                                         5.681E-01 0.000E+00 0.000E+00 1.000E+00
 INFORMATION **** SET_MPP **** PCRYSTAL CALCULATION
 INFORMATION **** READM2 **** NEW DEFAULT: FOCK/KS MATRIX MIXING SET TO 30 %
 INFORMATION **** READM2 **** NEW DEFAULT: FULL DIRECT SCF MODE
 INFORMATION **** READM2 **** NEW DEFAULT: COULOMB BIPOLAR BUFFER SET TO 32 Mb
 INFORMATION **** READM2 **** NEW DEFAULT: EXCHANGE BIPOLAR BUFFER SET TO 32 Mb

 *******************************************************************************
 NEW DEFAULT: DFT INTEGRATION GRID INCREASED TO XLGRID
 NEW DEFAULT: DIIS ACCELERATOR ACTIVE
 USE KEYWORD NODIIS TO TURN IT OFF
 *******************************************************************************

 WARNING **** RDDFTP **** HSE06-HJS ACTIVE
 RANGE SEPARATION - OMEGA:   0.110000000000000     
 INFORMATION **** DFTD3_INPUT **** PERFORM LATEST DISPERSION CORRECTION DFT-D3(BJ) WITH AUTOMATIC PARAMETER SETUP
 PLEASE CITE:
 (1) DFT-D3 Reference
  S. Grimme, J. Antony, S. Ehrlich, and H. Krieg, J. Chem. Phys. 132 (2010), 154104
 (2) BJ-Damping Reference
  S. Grimme, S. Ehrlich, and L. Goerigk, J. Comput. Chem. 32 (2011), 1456-1465
 (3) General DFT-D Review
  S. Grimme, A. Hansen, J. G. Brandenburg, and C. Bannwarth,
  Chem. Rev. 116 (2016), 5105-5154

 INFORMATION **** TOLINTEG **** COULOMB AND EXCHANGE SERIES TOLERANCES MODIFIED
 INFORMATION **** TOLDEE **** SCF TOL ON TOTAL ENERGY SET TO           7
 INFORMATION **** READM2 **** FULL DIRECT SCF (MONO AND BIEL INT) SELECTED
 INFORMATION **** BIPOSIZE **** COULOMB BIPOLAR BUFFER SET TO   110000000
 INFORMATION **** EXCHSIZE **** EXCHANGE BIPOLAR BUFFER SIZE SET TO   110000000
 INFORMATION **** MAXCYCLE **** MAX NUMBER OF SCF CYCLES SET TO         800
 INFORMATION **** DIIS **** DIIS FOR SCF ACTIVE
 INFORMATION **** DIIS **** LEVEL SHIFTER DISABLED
 INFORMATION **** PPAN ****  MULLIKEN POPULATION ANALYSIS AT THE END OF SCF
 *******************************************************************************
 N. OF ATOMS PER CELL        53  COULOMB OVERLAP TOL         (T1) 10**   -9
 NUMBER OF SHELLS           323  COULOMB PENETRATION TOL     (T2) 10**   -9
 NUMBER OF AO               763  EXCHANGE OVERLAP TOL        (T3) 10**   -9
 N. OF ELECTRONS PER CELL   330  EXCHANGE PSEUDO OVP (F(G))  (T4) 10**   -9
 CORE ELECTRONS PER CELL    104  EXCHANGE PSEUDO OVP (P(G))  (T5) 10**  -18
 N. OF SYMMETRY OPERATORS     1  POLE ORDER IN MONO ZONE                  4
 *******************************************************************************
 TYPE OF CALCULATION :  UNRESTRICTED OPEN SHELL
 KOHN-SHAM HAMILTONIAN

 (EXCHANGE)[CORRELATION] FUNCTIONAL:(HSE06 SR/GGA)[PERDEW-BURKE-ERNZERHOF]

 RANGE-SEPARATED HYBRID FUNCTIONAL 
 OMEGA (SHORT-RANGE)[LONG-RANGE]:(    0.1100)[    0.0000]

 HYBRID EXCHANGE - PERCENTAGE OF FOCK EXCHANGE    25.0000

 SPIN POLARIZED DFT SELECTED
 CORE  PSEUDO POTENTIAL         TOL. ON PSEUDO              (TP) 10**- 6

 CAPPA:IS1  6;IS2  6;IS3  6; K PTS MONK NET 112; SYMMOPS:K SPACE   2;G SPACE   1

 *******************************************************************************
 MAX NUMBER OF SCF CYCLES     800  CONVERGENCE ON DELTAP        10**-17
 WEIGHT OF F(I) IN F(I+1)      30% CONVERGENCE ON ENERGY        10**- 7
 SHRINK. FACT.(MONKH.)    6  6  6  NUMBER OF K POINTS IN THE IBZ    112
 SHRINKING FACTOR(GILAT NET)   12  NUMBER OF K POINTS(GILAT NET)    868
 *******************************************************************************
 *** K POINTS COORDINATES (OBLIQUE COORDINATES IN UNITS OF IS =  6)
   1-R(  0  0  0)   2-C(  1  0  0)   3-C(  2  0  0)   4-R(  3  0  0)
   5-C(  0  1  0)   6-C(  1  1  0)   7-C(  2  1  0)   8-C(  3  1  0)
   9-C(  4  1  0)  10-C(  5  1  0)  11-C(  0  2  0)  12-C(  1  2  0)
  13-C(  2  2  0)  14-C(  3  2  0)  15-C(  4  2  0)  16-C(  5  2  0)
  17-R(  0  3  0)  18-C(  1  3  0)  19-C(  2  3  0)  20-R(  3  3  0)
  21-C(  0  0  1)  22-C(  1  0  1)  23-C(  2  0  1)  24-C(  3  0  1)
  25-C(  4  0  1)  26-C(  5  0  1)  27-C(  0  1  1)  28-C(  1  1  1)
  29-C(  2  1  1)  30-C(  3  1  1)  31-C(  4  1  1)  32-C(  5  1  1)
  33-C(  0  2  1)  34-C(  1  2  1)  35-C(  2  2  1)  36-C(  3  2  1)
  37-C(  4  2  1)  38-C(  5  2  1)  39-C(  0  3  1)  40-C(  1  3  1)
  41-C(  2  3  1)  42-C(  3  3  1)  43-C(  4  3  1)  44-C(  5  3  1)
  45-C(  0  4  1)  46-C(  1  4  1)  47-C(  2  4  1)  48-C(  3  4  1)
  49-C(  4  4  1)  50-C(  5  4  1)  51-C(  0  5  1)  52-C(  1  5  1)
  53-C(  2  5  1)  54-C(  3  5  1)  55-C(  4  5  1)  56-C(  5  5  1)
  57-C(  0  0  2)  58-C(  1  0  2)  59-C(  2  0  2)  60-C(  3  0  2)
  61-C(  4  0  2)  62-C(  5  0  2)  63-C(  0  1  2)  64-C(  1  1  2)
  65-C(  2  1  2)  66-C(  3  1  2)  67-C(  4  1  2)  68-C(  5  1  2)
  69-C(  0  2  2)  70-C(  1  2  2)  71-C(  2  2  2)  72-C(  3  2  2)
  73-C(  4  2  2)  74-C(  5  2  2)  75-C(  0  3  2)  76-C(  1  3  2)
  77-C(  2  3  2)  78-C(  3  3  2)  79-C(  4  3  2)  80-C(  5  3  2)
  81-C(  0  4  2)  82-C(  1  4  2)  83-C(  2  4  2)  84-C(  3  4  2)
  85-C(  4  4  2)  86-C(  5  4  2)  87-C(  0  5  2)  88-C(  1  5  2)
  89-C(  2  5  2)  90-C(  3  5  2)  91-C(  4  5  2)  92-C(  5  5  2)
  93-R(  0  0  3)  94-C(  1  0  3)  95-C(  2  0  3)  96-R(  3  0  3)
  97-C(  0  1  3)  98-C(  1  1  3)  99-C(  2  1  3) 100-C(  3  1  3)
 101-C(  4  1  3) 102-C(  5  1  3) 103-C(  0  2  3) 104-C(  1  2  3)
 105-C(  2  2  3) 106-C(  3  2  3) 107-C(  4  2  3) 108-C(  5  2  3)
 109-R(  0  3  3) 110-C(  1  3  3) 111-C(  2  3  3) 112-R(  3  3  3)

 DIRECT LATTICE VECTORS COMPON. (A.U.)     RECIP. LATTICE VECTORS COMPON. (A.U.) 
        X            Y            Z              X            Y            Z
   12.5882050    7.2678036    0.0000000      0.4991327    0.0000000   -0.1764701
    0.0000000   14.5356071    0.0000000     -0.2495664    0.4322616   -0.1764701
    4.1960683    7.2678036   11.8682735      0.0000000    0.0000000    0.5294102

 DISK SPACE FOR EIGENVECTORS (FTN 10)   125748504 REALS

 SYMMETRY ADAPTION OF THE BLOCH FUNCTIONS DISABLED
 TTTTTTTTTTTTTTTTTTTTTTTTTTTTTT gordsh1     TELAPSE        3.51 TCPU        2.01

 MATRIX SIZE: P(G) 3381779, F(G)  607642, P(G) IRR 1696900, F(G) IRR  608534
 MAX G-VECTOR INDEX FOR 1- AND 2-ELECTRON INTEGRALS  79

 TTTTTTTTTTTTTTTTTTTTTTTTTTTTTT INPUT       TELAPSE        3.56 TCPU        2.06

 NEIGHBORS OF THE NON-EQUIVALENT ATOMS

 N = NUMBER OF NEIGHBORS AT DISTANCE R
    ATOM  N     R/ANG      R/AU   NEIGHBORS (ATOM LABELS AND CELL INDICES)
   1 B    1     1.5701     2.9671   27 N    0 0 0
   1 B    3     1.5701     2.9671   28 N    0 0 0   30 N    0 0 0   36 N    0 0 0
   1 B   12     2.5640     4.8452    2 B    0 0 0    3 B    0 0 0    4 B    0 0 0
                                     6 B    0 0 0    7 B    0 0 0    8 B    0 0 0
                                    10 B    0 0 0   12 B    0 0 0   16 B    0 0 0
                                    18 B    0 0 0   19 B    0 0 0   21 B    0 0 0
   1 B   12     3.0065     5.6815   31 N    0 0 0   32 N    0 0 0   34 N    0 0 0
                                    37 N    0 0 0   38 N    0 0 0   39 N    0 0 0
                                    41 N    0 0 0   42 N    0 0 0   43 N    0 0 0
                                    45 N    0 0 0   47 N    0 0 0   48 N    0 0 0
   1 B    5     3.6260     6.8521   15 B    0 0 0   17 B    0 0 0   22 B    0 0 0
                                    23 B    0 0 0   25 B    0 0 0
   1 B   12     3.9513     7.4670   29 N    0 0 0   29 N    0 0 1   33 N    0 0 0
                                    33 N    0 1 0   35 N    0 0 0   35 N    0 1-1
                                    44 N    0 0 0   44 N    1 0 0   46 N    0 0 0
                                    46 N    1 0-1   50 N    0 0 0   50 N    1-1 0

   2 B    1     1.5701     2.9671   28 N    0 0 0
   2 B    3     1.5701     2.9671   29 N    0 0 1   31 N    0 0 0   37 N    0 0 0
   2 B    8     2.5640     4.8452    1 B    0 0 0    4 B    0 0 0    5 B    0 1 0
                                     8 B    0 0 0   10 B    0 0 0   11 B    1 0 0
                                    19 B    0 0 0   22 B    0 0 0
   2 B    2     2.5640     4.8452    9 B    0 0 1   20 B    0 0 1
   2 B    1     2.5640     4.8452    3 B    0 0 1
   2 B    1     2.6815     5.0672   53 PT   0 0 0

   3 B    4     1.5701     2.9671   27 N    0 0 0   29 N    0 0 0   32 N    0 0 0
                                    38 N    0 0 0
   3 B    9     2.5640     4.8452    1 B    0 0 0    6 B    0 0 0    7 B    0 0 0
                                     9 B    0 0 0   12 B    0 0 0   17 B    0 0 0
                                    18 B    0 0 0   20 B    0 0 0   23 B    0 0 0
   3 B    2     2.5640     4.8452    5 B    0 1-1   11 B    1 0-1
   3 B    1     2.5640     4.8452    2 B    0 0-1
   3 B    1     3.0065     5.6815   41 N    0 0 0
   3 B    9     3.0065     5.6815   30 N    0 0 0   31 N    0 0-1   33 N    0 0 0
                                    36 N    0 0 0   37 N    0 0-1   40 N    1 0-1
                                    42 N    0 0 0   44 N    0 0 0   47 N    0 0 0

   4 B    1     1.5701     2.9671   30 N    0 0 0
   4 B    3     1.5701     2.9671   31 N    0 0 0   33 N    0 1 0   39 N    0 0 0
   4 B    9     2.5640     4.8452    1 B    0 0 0    2 B    0 0 0    5 B    0 1 0
                                     6 B    0 0 0   10 B    0 0 0   13 B    1 0 0
                                    15 B    0 0 0   21 B    0 0 0   22 B    0 0 0
   4 B    2     2.5640     4.8452    9 B    0 1 0   24 B    0 1 0
   4 B    1     2.5640     4.8452    7 B    0 1 0
   4 B    2     3.0065     5.6815   28 N    0 0 0   36 N    0 0 0

   5 B    1     1.5701     2.9671   31 N    0-1 0
   5 B    3     1.5701     2.9671   32 N    0-1 1   34 N    0 0 0   40 N    1-1 0
   5 B    6     2.5640     4.8452    2 B    0-1 0    4 B    0-1 0   11 B    1-1 0
                                    13 B    1-1 0   14 B    1-1 0   22 B    0-1 0
   5 B    4     2.5640     4.8452    3 B    0-1 1    7 B    0 0 0   23 B    0-1 1
                                    25 B    0 0 0
   5 B    2     2.5640     4.8452    6 B    0-1 1    8 B    0 0 0
   5 B    4     3.0065     5.6815   29 N    0-1 1   33 N    0 0 0   37 N    0-1 0
                                    39 N    0-1 0

   6 B    4     1.5701     2.9671   30 N    0 0 0   32 N    0 0 0   35 N    0 1-1
                                    41 N    0 0 0
   6 B    7     2.5640     4.8452    1 B    0 0 0    3 B    0 0 0    4 B    0 0 0
                                    12 B    0 0 0   15 B    0 0 0   21 B    0 0 0
                                    23 B    0 0 0
   6 B    2     2.5640     4.8452   14 B    1 0-1   26 B    0 1-1
   6 B    3     2.5640     4.8452    5 B    0 1-1    8 B    0 1-1    9 B    0 1 0
   6 B    1     3.0065     5.6815   27 N    0 0 0
   6 B    2     3.0065     5.6815   36 N    0 0 0   38 N    0 0 0

   7 B    4     1.5701     2.9671   27 N    0 0 0   33 N    0 0 0   34 N    0 0 0
                                    42 N    0 0 0
   7 B    9     2.5640     4.8452    1 B    0 0 0    3 B    0 0 0    8 B    0 0 0
                                     9 B    0 0 0   16 B    0 0 0   17 B    0 0 0
                                    18 B    0 0 0   24 B    0 0 0   25 B    0 0 0
   7 B    2     2.5640     4.8452    5 B    0 0 0   13 B    1-1 0
   7 B    1     2.5640     4.8452    4 B    0-1 0
   7 B    1     3.0065     5.6815   43 N    0 0 0
   7 B    9     3.0065     5.6815   28 N    0 0 0   29 N    0 0 0   31 N    0-1 0
                                    36 N    0 0 0   38 N    0 0 0   39 N    0-1 0
                                    40 N    1-1 0   44 N    0 0 0   45 N    0 0 0

   8 B    4     1.5701     2.9671   28 N    0 0 0   34 N    0 0 0   35 N    0 0 0
                                    43 N    0 0 0
   8 B    6     2.5640     4.8452    1 B    0 0 0    2 B    0 0 0    7 B    0 0 0
                                    16 B    0 0 0   19 B    0 0 0   25 B    0 0 0
   8 B    2     2.5640     4.8452   14 B    1-1 0   26 B    0 0 0
   8 B    3     2.5640     4.8452    5 B    0 0 0    6 B    0-1 1    9 B    0 0 1
   8 B    1     2.6814     5.0672   53 PT   0 0 0
   8 B    1     3.0065     5.6815   27 N    0 0 0

   9 B    2     1.5701     2.9671   29 N    0 0 0   33 N    0 0 0
   9 B    1     1.5701     2.9671   35 N    0 0-1
   9 B    1     1.9757     3.7335   53 PT   0 0-1
   9 B    6     2.5640     4.8452    3 B    0 0 0    7 B    0 0 0   17 B    0 0 0
                                    20 B    0 0 0   24 B    0 0 0   26 B    0 0-1
   9 B    3     2.5640     4.8452    2 B    0 0-1    4 B    0-1 0   15 B    0-1 0
   9 B    2     2.5640     4.8452    6 B    0-1 0    8 B    0 0-1

  10 B    1     1.5701     2.9671   36 N    0 0 0
  10 B    3     1.5701     2.9671   37 N    0 0 0   39 N    0 0 0   44 N    1 0 0
  10 B    8     2.5640     4.8452    1 B    0 0 0    2 B    0 0 0    4 B    0 0 0
                                    11 B    1 0 0   12 B    0 0 0   13 B    1 0 0
                                    15 B    0 0 0   16 B    0 0 0
  10 B    2     2.5640     4.8452   20 B    1 0 0   24 B    1 0 0
  10 B    1     2.5640     4.8452   18 B    1 0 0
  10 B    2     3.0065     5.6815   28 N    0 0 0   30 N    0 0 0

  11 B    1     1.5701     2.9671   37 N   -1 0 0
  11 B    3     1.5701     2.9671   38 N   -1 0 1   40 N    0 0 0   45 N    0 0 0
  11 B    5     2.5640     4.8452    2 B   -1 0 0    5 B   -1 1 0   10 B   -1 0 0
                                    13 B    0 0 0   14 B    0 0 0
  11 B    4     2.5640     4.8452    3 B   -1 0 1   17 B   -1 0 1   18 B    0 0 0
                                    25 B    0 0 0
  11 B    2     2.5640     4.8452   12 B   -1 0 1   19 B    0 0 0
  11 B    1     2.6815     5.0673   53 PT  -1 0 0

  12 B    4     1.5701     2.9671   36 N    0 0 0   38 N    0 0 0   41 N    0 0 0
                                    46 N    1 0-1
  12 B    7     2.5640     4.8452    1 B    0 0 0    3 B    0 0 0    6 B    0 0 0
                                    10 B    0 0 0   15 B    0 0 0   16 B    0 0 0
                                    17 B    0 0 0
  12 B    2     2.5640     4.8452   14 B    1 0-1   26 B    1 0-1
  12 B    3     2.5640     4.8452   11 B    1 0-1   19 B    1 0-1   20 B    1 0 0
  12 B    1     3.0065     5.6815   27 N    0 0 0
  12 B    3     3.0065     5.6815   30 N    0 0 0   32 N    0 0 0   49 N    1 0 0

  13 B    1     1.5701     2.9671   39 N   -1 0 0
  13 B    3     1.5701     2.9671   40 N    0 0 0   42 N   -1 1 0   47 N    0 0 0
  13 B    6     2.5640     4.8452    4 B   -1 0 0    5 B   -1 1 0   10 B   -1 0 0
                                    11 B    0 0 0   14 B    0 0 0   15 B   -1 0 0
  13 B    4     2.5640     4.8452    7 B   -1 1 0   17 B   -1 1 0   18 B    0 0 0
                                    23 B    0 0 0
  13 B    2     2.5640     4.8452   16 B   -1 1 0   21 B    0 0 0
  13 B    4     3.0065     5.6815   31 N   -1 0 0   33 N   -1 1 0   37 N   -1 0 0
                                    44 N    0 0 0

  14 B    1     1.5701     2.9671   40 N    0 0 0
  14 B    3     1.5701     2.9671   41 N   -1 0 1   43 N   -1 1 0   48 N    0 0 0
  14 B    3     2.5640     4.8452    5 B   -1 1 0   11 B    0 0 0   13 B    0 0 0
  14 B    6     2.5640     4.8452    6 B   -1 0 1    8 B   -1 1 0   12 B   -1 0 1
                                    16 B   -1 1 0   19 B    0 0 0   21 B    0 0 0
  14 B    2     2.5640     4.8452   15 B   -1 0 1   22 B    0 0 0
  14 B    1     2.6814     5.0672   53 PT  -1 1 0

  15 B    3     1.5701     2.9671   39 N    0 0 0   41 N    0 0 0   49 N    1 0 0
  15 B    1     1.9757     3.7335   53 PT   0 1-1
  15 B    5     2.5640     4.8452    4 B    0 0 0    6 B    0 0 0   10 B    0 0 0
                                    12 B    0 0 0   13 B    1 0 0
  15 B    2     2.5640     4.8452    9 B    0 1 0   20 B    1 0 0
  15 B    4     2.5640     4.8452   14 B    1 0-1   17 B    0 1 0   22 B    1 0-1
                                    23 B    1 0 0
  15 B    2     3.0065     5.6815   30 N    0 0 0   36 N    0 0 0

  16 B    4     1.5701     2.9671   36 N    0 0 0   42 N    0 0 0   43 N    0 0 0
                                    50 N    1-1 0
  16 B    6     2.5640     4.8452    1 B    0 0 0    7 B    0 0 0    8 B    0 0 0
                                    10 B    0 0 0   12 B    0 0 0   17 B    0 0 0
  16 B    2     2.5640     4.8452   14 B    1-1 0   26 B    1 0-1
  16 B    3     2.5640     4.8452   13 B    1-1 0   21 B    1-1 0   24 B    1 0 0
  16 B    1     3.0065     5.6815   27 N    0 0 0
  16 B    3     3.0065     5.6815   28 N    0 0 0   34 N    0 0 0   51 N    1 0 0

  17 B    3     1.5701     2.9671   38 N    0 0 0   42 N    0 0 0   52 N    1 0-1
  17 B    1     1.9757     3.7335   53 PT   0 0-1
  17 B    5     2.5640     4.8452    3 B    0 0 0    7 B    0 0 0    9 B    0 0 0
                                    12 B    0 0 0   16 B    0 0 0
  17 B    2     2.5640     4.8452   11 B    1 0-1   13 B    1-1 0
  17 B    4     2.5640     4.8452   15 B    0-1 0   23 B    1-1 0   25 B    1 0-1
                                    26 B    1 0-1
  17 B    5     3.0065     5.6815   27 N    0 0 0   29 N    0 0 0   33 N    0 0 0
                                    46 N    1 0-1   50 N    1-1 0

  18 B    4     1.5701     2.9671   27 N    0 0 0   44 N    0 0 0   45 N    0 0 0
                                    47 N    0 0 0
  18 B    9     2.5640     4.8452    1 B    0 0 0    3 B    0 0 0    7 B    0 0 0
                                    19 B    0 0 0   20 B    0 0 0   21 B    0 0 0
                                    23 B    0 0 0   24 B    0 0 0   25 B    0 0 0
  18 B    2     2.5640     4.8452   11 B    0 0 0   13 B    0 0 0
  18 B    1     2.5640     4.8452   10 B   -1 0 0
  18 B    1     3.0065     5.6815   48 N    0 0 0
  18 B    9     3.0065     5.6815   28 N    0 0 0   29 N    0 0 0   30 N    0 0 0
                                    32 N    0 0 0   33 N    0 0 0   34 N    0 0 0
                                    37 N   -1 0 0   39 N   -1 0 0   40 N    0 0 0

  19 B    4     1.5701     2.9671   28 N    0 0 0   45 N    0 0 0   46 N    0 0 0
                                    48 N    0 0 0
  19 B    7     2.5640     4.8452    1 B    0 0 0    2 B    0 0 0    8 B    0 0 0
                                    18 B    0 0 0   21 B    0 0 0   22 B    0 0 0
                                    25 B    0 0 0
  19 B    2     2.5640     4.8452   14 B    0 0 0   26 B    0 0 0
  19 B    3     2.5640     4.8452   11 B    0 0 0   12 B   -1 0 1   20 B    0 0 1
  19 B    1     3.0065     5.6815   27 N    0 0 0
  19 B    3     3.0065     5.6815   30 N    0 0 0   47 N    0 0 0   49 N    0 0 1

  20 B    3     1.5701     2.9671   29 N    0 0 0   44 N    0 0 0   49 N    0 0 0
  20 B    1     1.5701     2.9671   46 N    0 0-1
  20 B    6     2.5640     4.8452    3 B    0 0 0    9 B    0 0 0   18 B    0 0 0
                                    23 B    0 0 0   24 B    0 0 0   26 B    0 0-1
  20 B    4     2.5640     4.8452    2 B    0 0-1   10 B   -1 0 0   15 B   -1 0 0
                                    22 B    0 0-1
  20 B    2     2.5640     4.8452   12 B   -1 0 0   19 B    0 0-1
  20 B    2     3.0065     5.6815   32 N    0 0 0   47 N    0 0 0

  21 B    4     1.5701     2.9671   30 N    0 0 0   47 N    0 0 0   48 N    0 0 0
                                    50 N    0 0 0
  21 B    7     2.5640     4.8452    1 B    0 0 0    4 B    0 0 0    6 B    0 0 0
                                    18 B    0 0 0   19 B    0 0 0   22 B    0 0 0
                                    23 B    0 0 0
  21 B    2     2.5640     4.8452   14 B    0 0 0   26 B    0 1-1
  21 B    3     2.5640     4.8452   13 B    0 0 0   16 B   -1 1 0   24 B    0 1 0
  21 B    1     3.0065     5.6815   27 N    0 0 0
  21 B    3     3.0065     5.6815   28 N    0 0 0   45 N    0 0 0   51 N    0 1 0

  22 B    4     1.5701     2.9671   31 N    0 0 0   48 N    0 0 0   49 N    0 0 1
                                    51 N    0 1 0
  22 B    5     2.5640     4.8452    2 B    0 0 0    4 B    0 0 0    5 B    0 1 0
                                    19 B    0 0 0   21 B    0 0 0
  22 B    2     2.5640     4.8452   20 B    0 0 1   24 B    0 1 0
  22 B    4     2.5640     4.8452   14 B    0 0 0   15 B   -1 0 1   23 B    0 0 1
                                    25 B    0 1 0
  22 B    1     2.6815     5.0672   53 PT  -1 1 0
  22 B    2     3.0065     5.6815   28 N    0 0 0   30 N    0 0 0

  23 B    3     1.5701     2.9671   32 N    0 0 0   47 N    0 0 0   52 N    0 1-1
  23 B    1     1.5701     2.9671   49 N    0 0 0
  23 B    5     2.5640     4.8452    3 B    0 0 0    6 B    0 0 0   18 B    0 0 0
                                    20 B    0 0 0   21 B    0 0 0
  23 B    2     2.5640     4.8452    5 B    0 1-1   13 B    0 0 0
  23 B    5     2.5640     4.8452   15 B   -1 0 0   17 B   -1 1 0   22 B    0 0-1
                                    25 B    0 1-1   26 B    0 1-1
  23 B    5     3.0065     5.6815   27 N    0 0 0   29 N    0 0 0   35 N    0 1-1
                                    44 N    0 0 0   50 N    0 0 0

  24 B    3     1.5701     2.9671   33 N    0 0 0   44 N    0 0 0   51 N    0 0 0
  24 B    1     1.5701     2.9671   50 N    0-1 0
  24 B    6     2.5640     4.8452    7 B    0 0 0    9 B    0 0 0   18 B    0 0 0
                                    20 B    0 0 0   25 B    0 0 0   26 B    0 0-1
  24 B    3     2.5640     4.8452    4 B    0-1 0   10 B   -1 0 0   22 B    0-1 0
  24 B    2     2.5640     4.8452   16 B   -1 0 0   21 B    0-1 0
  24 B    2     3.0065     5.6815   34 N    0 0 0   45 N    0 0 0

  25 B    3     1.5701     2.9671   34 N    0 0 0   45 N    0 0 0   52 N    0 0 0
  25 B    1     1.5701     2.9671   51 N    0 0 0
  25 B    5     2.5640     4.8452    7 B    0 0 0    8 B    0 0 0   18 B    0 0 0
                                    19 B    0 0 0   24 B    0 0 0
  25 B    2     2.5640     4.8452    5 B    0 0 0   11 B    0 0 0
  25 B    4     2.5640     4.8452   17 B   -1 0 1   22 B    0-1 0   23 B    0-1 1
                                    26 B    0 0 0
  25 B    1     2.6815     5.0673   53 PT  -1 0 0

  26 B    3     1.5701     2.9671   35 N    0 0 0   46 N    0 0 0   50 N    0-1 1
  26 B    1     1.5701     2.9671   52 N    0 0 0
  26 B    3     2.5640     4.8452    9 B    0 0 1   20 B    0 0 1   24 B    0 0 1
  26 B    6     2.5640     4.8452    6 B    0-1 1    8 B    0 0 0   12 B   -1 0 1
                                    16 B   -1 0 1   19 B    0 0 0   21 B    0-1 1
  26 B    3     2.5640     4.8452   17 B   -1 0 1   23 B    0-1 1   25 B    0 0 0
  26 B    3     3.0065     5.6815   29 N    0 0 1   33 N    0 0 1   44 N    0 0 1

  27 N    1     1.5701     2.9671    1 B    0 0 0
  27 N    3     1.5701     2.9671    3 B    0 0 0    7 B    0 0 0   18 B    0 0 0
  27 N    3     2.5640     4.8452   28 N    0 0 0   30 N    0 0 0   36 N    0 0 0
  27 N    6     2.5640     4.8452   32 N    0 0 0   34 N    0 0 0   38 N    0 0 0
                                    42 N    0 0 0   45 N    0 0 0   47 N    0 0 0
  27 N    3     2.5640     4.8452   29 N    0 0 0   33 N    0 0 0   44 N    0 0 0
  27 N    6     3.0065     5.6815    6 B    0 0 0    8 B    0 0 0   12 B    0 0 0
                                    16 B    0 0 0   19 B    0 0 0   21 B    0 0 0

  28 N    1     1.5701     2.9671    2 B    0 0 0
  28 N    3     1.5701     2.9671    1 B    0 0 0    8 B    0 0 0   19 B    0 0 0
  28 N    6     2.5640     4.8452   27 N    0 0 0   29 N    0 0 1   30 N    0 0 0
                                    31 N    0 0 0   36 N    0 0 0   37 N    0 0 0
  28 N    4     2.5640     4.8452   35 N    0 0 0   43 N    0 0 0   46 N    0 0 0
                                    48 N    0 0 0
  28 N    2     2.5640     4.8452   34 N    0 0 0   45 N    0 0 0
  28 N    3     3.0065     5.6815    4 B    0 0 0   10 B    0 0 0   22 B    0 0 0

  29 N    4     1.5701     2.9671    2 B    0 0-1    3 B    0 0 0    9 B    0 0 0
                                    20 B    0 0 0
  29 N    5     2.5640     4.8452   28 N    0 0-1   31 N    0 0-1   32 N    0 0 0
                                    37 N    0 0-1   38 N    0 0 0
  29 N    1     2.5640     4.8452   49 N    0 0 0
  29 N    5     2.5640     4.8452   27 N    0 0 0   33 N    0 0 0   35 N    0 0-1
                                    44 N    0 0 0   46 N    0 0-1
  29 N    1     2.6815     5.0672   53 PT   0 0-1
  29 N    2     3.0065     5.6815    5 B    0 1-1   11 B    1 0-1

  30 N    1     1.5701     2.9671    4 B    0 0 0
  30 N    3     1.5701     2.9671    1 B    0 0 0    6 B    0 0 0   21 B    0 0 0
  30 N    6     2.5640     4.8452   27 N    0 0 0   28 N    0 0 0   31 N    0 0 0
                                    33 N    0 1 0   36 N    0 0 0   39 N    0 0 0
  30 N    4     2.5640     4.8452   35 N    0 1-1   41 N    0 0 0   48 N    0 0 0
                                    50 N    0 0 0
  30 N    2     2.5640     4.8452   32 N    0 0 0   47 N    0 0 0
  30 N    4     3.0065     5.6815    2 B    0 0 0   10 B    0 0 0   15 B    0 0 0
                                    22 B    0 0 0

  31 N    1     1.5701     2.9671    5 B    0 1 0
  31 N    3     1.5701     2.9671    2 B    0 0 0    4 B    0 0 0   22 B    0 0 0
  31 N    9     2.5640     4.8452   28 N    0 0 0   29 N    0 0 1   30 N    0 0 0
                                    32 N    0 0 1   33 N    0 1 0   34 N    0 1 0
                                    37 N    0 0 0   39 N    0 0 0   40 N    1 0 0
  31 N    2     2.5640     4.8452   49 N    0 0 1   51 N    0 1 0
  31 N    1     2.5640     4.8452   48 N    0 0 0
  31 N    2     3.0065     5.6815   11 B    1 0 0   13 B    1 0 0

  32 N    4     1.5701     2.9671    3 B    0 0 0    5 B    0 1-1    6 B    0 0 0
                                    23 B    0 0 0
  32 N    7     2.5640     4.8452   29 N    0 0 0   31 N    0 0-1   34 N    0 1-1
                                    35 N    0 1-1   38 N    0 0 0   40 N    1 0-1
                                    41 N    0 0 0
  32 N    2     2.5640     4.8452   27 N    0 0 0   52 N    0 1-1
  32 N    3     2.5640     4.8452   30 N    0 0 0   47 N    0 0 0   49 N    0 0 0
  32 N    1     3.0065     5.6815   14 B    1 0-1
  32 N    3     3.0065     5.6815   11 B    1 0-1   12 B    0 0 0   20 B    0 0 0

  33 N    4     1.5701     2.9671    4 B    0-1 0    7 B    0 0 0    9 B    0 0 0
                                    24 B    0 0 0
  33 N    5     2.5640     4.8452   30 N    0-1 0   31 N    0-1 0   34 N    0 0 0
                                    39 N    0-1 0   42 N    0 0 0
  33 N    1     2.5640     4.8452   51 N    0 0 0
  33 N    5     2.5640     4.8452   27 N    0 0 0   29 N    0 0 0   35 N    0 0-1
                                    44 N    0 0 0   50 N    0-1 0
  33 N    2     3.0065     5.6815    5 B    0 0 0   13 B    1-1 0
  33 N    5     3.0065     5.6815   15 B    0-1 0   17 B    0 0 0   22 B    0-1 0
                                    25 B    0 0 0   26 B    0 0-1

  34 N    4     1.5701     2.9671    5 B    0 0 0    7 B    0 0 0    8 B    0 0 0
                                    25 B    0 0 0
  34 N    7     2.5640     4.8452   31 N    0-1 0   32 N    0-1 1   33 N    0 0 0
                                    35 N    0 0 0   40 N    1-1 0   42 N    0 0 0
                                    43 N    0 0 0
  34 N    2     2.5640     4.8452   27 N    0 0 0   52 N    0 0 0
  34 N    3     2.5640     4.8452   28 N    0 0 0   45 N    0 0 0   51 N    0 0 0
  34 N    1     3.0065     5.6815   14 B    1-1 0
  34 N    3     3.0065     5.6815   13 B    1-1 0   16 B    0 0 0   24 B    0 0 0

  35 N    3     1.5701     2.9671    6 B    0-1 1    8 B    0 0 0   26 B    0 0 0
  35 N    1     1.5701     2.9671    9 B    0 0 1
  35 N    4     2.5640     4.8452   32 N    0-1 1   34 N    0 0 0   41 N    0-1 1
                                    43 N    0 0 0
  35 N    2     2.5640     4.8452   28 N    0 0 0   30 N    0-1 1
  35 N    5     2.5640     4.8452   29 N    0 0 1   33 N    0 0 1   46 N    0 0 0
                                    50 N    0-1 1   52 N    0 0 0
  35 N    1     2.6814     5.0672   53 PT   0 0 0

  36 N    1     1.5701     2.9671   10 B    0 0 0
  36 N    3     1.5701     2.9671    1 B    0 0 0   12 B    0 0 0   16 B    0 0 0
  36 N    6     2.5640     4.8452   27 N    0 0 0   28 N    0 0 0   30 N    0 0 0
                                    37 N    0 0 0   39 N    0 0 0   44 N    1 0 0
  36 N    4     2.5640     4.8452   41 N    0 0 0   43 N    0 0 0   46 N    1 0-1
                                    50 N    1-1 0
  36 N    2     2.5640     4.8452   38 N    0 0 0   42 N    0 0 0
  36 N    3     3.0065     5.6815    2 B    0 0 0    4 B    0 0 0   15 B    0 0 0

  37 N    1     1.5701     2.9671   11 B    1 0 0
  37 N    2     1.5701     2.9671    2 B    0 0 0   10 B    0 0 0
  37 N    1     1.9757     3.7335   53 PT   0 0 0
  37 N    9     2.5640     4.8452   28 N    0 0 0   29 N    0 0 1   31 N    0 0 0
                                    36 N    0 0 0   38 N    0 0 1   39 N    0 0 0
                                    40 N    1 0 0   44 N    1 0 0   45 N    1 0 0
  37 N    1     2.5640     4.8452   51 N    1 0 0
  37 N    1     2.5640     4.8452   43 N    0 0 0

  38 N    4     1.5701     2.9671    3 B    0 0 0   11 B    1 0-1   12 B    0 0 0
                                    17 B    0 0 0
  38 N    7     2.5640     4.8452   29 N    0 0 0   32 N    0 0 0   37 N    0 0-1
                                    40 N    1 0-1   41 N    0 0 0   45 N    1 0-1
                                    46 N    1 0-1
  38 N    2     2.5640     4.8452   27 N    0 0 0   52 N    1 0-1
  38 N    2     2.5640     4.8452   36 N    0 0 0   42 N    0 0 0
  38 N    1     2.6815     5.0673   53 PT   0 0-1
  38 N    1     3.0065     5.6815   14 B    1 0-1

  39 N    1     1.5701     2.9671   13 B    1 0 0
  39 N    3     1.5701     2.9671    4 B    0 0 0   10 B    0 0 0   15 B    0 0 0
  39 N    9     2.5640     4.8452   30 N    0 0 0   31 N    0 0 0   33 N    0 1 0
                                    36 N    0 0 0   37 N    0 0 0   40 N    1 0 0
                                    42 N    0 1 0   44 N    1 0 0   47 N    1 0 0
  39 N    1     2.5640     4.8452   49 N    1 0 0
  39 N    1     2.5640     4.8452   41 N    0 0 0
  39 N    2     3.0065     5.6815    5 B    0 1 0   11 B    1 0 0

  40 N    1     1.5701     2.9671   14 B    0 0 0
  40 N    3     1.5701     2.9671    5 B   -1 1 0   11 B    0 0 0   13 B    0 0 0
  40 N   12     2.5640     4.8452   31 N   -1 0 0   32 N   -1 0 1   34 N   -1 1 0
                                    37 N   -1 0 0   38 N   -1 0 1   39 N   -1 0 0
                                    41 N   -1 0 1   42 N   -1 1 0   43 N   -1 1 0
                                    45 N    0 0 0   47 N    0 0 0   48 N    0 0 0
  40 N   12     3.0065     5.6815    2 B   -1 0 0    3 B   -1 0 1    4 B   -1 0 0
                                     6 B   -1 0 1    7 B   -1 1 0    8 B   -1 1 0
                                    10 B   -1 0 0   12 B   -1 0 1   16 B   -1 1 0
                                    18 B    0 0 0   19 B    0 0 0   21 B    0 0 0
  40 N    6     3.6260     6.8521   29 N   -1 0 1   33 N   -1 1 0   35 N   -1 1 0
                                    44 N    0 0 0   46 N    0 0 0   50 N    0 0 0
  40 N   10     3.9513     7.4670   15 B   -1 0 0   15 B   -1 0 1   17 B   -1 0 1
                                    17 B   -1 1 0   22 B    0 0 0   22 B   -1 0 0
                                    23 B    0 0 0   23 B   -1 0 1   25 B    0 0 0
                                    25 B   -1 1 0

  41 N    4     1.5701     2.9671    6 B    0 0 0   12 B    0 0 0   14 B    1 0-1
                                    15 B    0 0 0
  41 N    8     2.5640     4.8452   32 N    0 0 0   35 N    0 1-1   38 N    0 0 0
                                    40 N    1 0-1   43 N    0 1-1   46 N    1 0-1
                                    48 N    1 0-1   49 N    1 0 0
  41 N    2     2.5640     4.8452   30 N    0 0 0   36 N    0 0 0
  41 N    1     2.5640     4.8452   39 N    0 0 0
  41 N    1     2.6815     5.0672   53 PT   0 1-1
  41 N    1     3.0065     5.6815    3 B    0 0 0

  42 N    4     1.5701     2.9671    7 B    0 0 0   13 B    1-1 0   16 B    0 0 0
                                    17 B    0 0 0
  42 N    7     2.5640     4.8452   33 N    0 0 0   34 N    0 0 0   39 N    0-1 0
                                    40 N    1-1 0   43 N    0 0 0   47 N    1-1 0
                                    50 N    1-1 0
  42 N    2     2.5640     4.8452   27 N    0 0 0   52 N    1 0-1
  42 N    2     2.5640     4.8452   36 N    0 0 0   38 N    0 0 0
  42 N    1     3.0065     5.6815   14 B    1-1 0
  42 N    3     3.0065     5.6815    5 B    0 0 0    8 B    0 0 0    9 B    0 0 0

  43 N    3     1.5701     2.9671    8 B    0 0 0   14 B    1-1 0   16 B    0 0 0
  43 N    1     1.9756     3.7334   53 PT   0 0 0
  43 N    8     2.5640     4.8452   34 N    0 0 0   35 N    0 0 0   40 N    1-1 0
                                    41 N    0-1 1   42 N    0 0 0   48 N    1-1 0
                                    50 N    1-1 0   51 N    1 0 0
  43 N    2     2.5640     4.8452   28 N    0 0 0   36 N    0 0 0
  43 N    1     2.5640     4.8452   37 N    0 0 0
  43 N    1     3.0065     5.6815    7 B    0 0 0

  44 N    4     1.5701     2.9671   10 B   -1 0 0   18 B    0 0 0   20 B    0 0 0
                                    24 B    0 0 0
  44 N    5     2.5640     4.8452   36 N   -1 0 0   37 N   -1 0 0   39 N   -1 0 0
                                    45 N    0 0 0   47 N    0 0 0
  44 N    2     2.5640     4.8452   49 N    0 0 0   51 N    0 0 0
  44 N    5     2.5640     4.8452   27 N    0 0 0   29 N    0 0 0   33 N    0 0 0
                                    46 N    0 0-1   50 N    0-1 0
  44 N    2     3.0065     5.6815   11 B    0 0 0   13 B    0 0 0
  44 N    4     3.0065     5.6815   15 B   -1 0 0   23 B    0 0 0   25 B    0 0 0
                                    26 B    0 0-1

  45 N    4     1.5701     2.9671   11 B    0 0 0   18 B    0 0 0   19 B    0 0 0
                                    25 B    0 0 0
  45 N    7     2.5640     4.8452   37 N   -1 0 0   38 N   -1 0 1   40 N    0 0 0
                                    44 N    0 0 0   46 N    0 0 0   47 N    0 0 0
                                    48 N    0 0 0
  45 N    2     2.5640     4.8452   27 N    0 0 0   52 N    0 0 0
  45 N    3     2.5640     4.8452   28 N    0 0 0   34 N    0 0 0   51 N    0 0 0
  45 N    1     3.0065     5.6815   14 B    0 0 0
  45 N    3     3.0065     5.6815   13 B    0 0 0   21 B    0 0 0   24 B    0 0 0

  46 N    3     1.5701     2.9671   12 B   -1 0 1   19 B    0 0 0   26 B    0 0 0
  46 N    1     1.5701     2.9671   20 B    0 0 1
  46 N    5     2.5640     4.8452   38 N   -1 0 1   41 N   -1 0 1   45 N    0 0 0
                                    48 N    0 0 0   49 N    0 0 1
  46 N    2     2.5640     4.8452   28 N    0 0 0   36 N   -1 0 1
  46 N    5     2.5640     4.8452   29 N    0 0 1   35 N    0 0 0   44 N    0 0 1
                                    50 N    0-1 1   52 N    0 0 0
  46 N    5     3.0065     5.6815   14 B    0 0 0   15 B   -1 0 1   17 B   -1 0 1
                                    22 B    0 0 0   25 B    0 0 0

  47 N    4     1.5701     2.9671   13 B    0 0 0   18 B    0 0 0   21 B    0 0 0
                                    23 B    0 0 0
  47 N    7     2.5640     4.8452   39 N   -1 0 0   40 N    0 0 0   42 N   -1 1 0
                                    44 N    0 0 0   45 N    0 0 0   48 N    0 0 0
                                    50 N    0 0 0
  47 N    2     2.5640     4.8452   27 N    0 0 0   52 N    0 1-1
  47 N    3     2.5640     4.8452   30 N    0 0 0   32 N    0 0 0   49 N    0 0 0
  47 N    1     3.0065     5.6815   14 B    0 0 0
  47 N    3     3.0065     5.6815   11 B    0 0 0   19 B    0 0 0   20 B    0 0 0

  48 N    4     1.5701     2.9671   14 B    0 0 0   19 B    0 0 0   21 B    0 0 0
                                    22 B    0 0 0
  48 N    9     2.5640     4.8452   40 N    0 0 0   41 N   -1 0 1   43 N   -1 1 0
                                    45 N    0 0 0   46 N    0 0 0   47 N    0 0 0
                                    49 N    0 0 1   50 N    0 0 0   51 N    0 1 0
  48 N    2     2.5640     4.8452   28 N    0 0 0   30 N    0 0 0
  48 N    1     2.5640     4.8452   31 N    0 0 0
  48 N    1     3.0065     5.6815   18 B    0 0 0
  48 N    8     3.0065     5.6815    1 B    0 0 0    2 B    0 0 0    4 B    0 0 0
                                    11 B    0 0 0   12 B   -1 0 1   13 B    0 0 0
                                    15 B   -1 0 1   16 B   -1 1 0

  49 N    3     1.5701     2.9671   15 B   -1 0 0   22 B    0 0-1   20 B    0 0 0
  49 N    1     1.5701     2.9671   23 B    0 0 0
  49 N    5     2.5640     4.8452   41 N   -1 0 0   46 N    0 0-1   48 N    0 0-1
                                    51 N    0 1-1   52 N    0 1-1
  49 N    4     2.5640     4.8452   29 N    0 0 0   31 N    0 0-1   39 N   -1 0 0
                                    44 N    0 0 0
  49 N    2     2.5640     4.8452   32 N    0 0 0   47 N    0 0 0
  49 N    1     2.6815     5.0673   53 PT  -1 1-1

  50 N    3     1.5701     2.9671   16 B   -1 1 0   21 B    0 0 0   26 B    0 1-1
  50 N    1     1.5701     2.9671   24 B    0 1 0
  50 N    5     2.5640     4.8452   42 N   -1 1 0   43 N   -1 1 0   47 N    0 0 0
                                    48 N    0 0 0   51 N    0 1 0
  50 N    2     2.5640     4.8452   30 N    0 0 0   36 N   -1 1 0
  50 N    5     2.5640     4.8452   33 N    0 1 0   35 N    0 1-1   44 N    0 1 0
                                    46 N    0 1-1   52 N    0 1-1
  50 N    4     3.0065     5.6815   14 B    0 0 0   17 B   -1 1 0   22 B    0 0 0
                                    23 B    0 0 0

  51 N    2     1.5701     2.9671   22 B    0-1 0   24 B    0 0 0
  51 N    1     1.5701     2.9671   25 B    0 0 0
  51 N    1     1.9757     3.7335   53 PT  -1 0 0
  51 N    5     2.5640     4.8452   43 N   -1 0 0   48 N    0-1 0   49 N    0-1 1
                                    50 N    0-1 0   52 N    0 0 0
  51 N    4     2.5640     4.8452   31 N    0-1 0   33 N    0 0 0   37 N   -1 0 0
                                    44 N    0 0 0
  51 N    2     2.5640     4.8452   34 N    0 0 0   45 N    0 0 0

  52 N    3     1.5701     2.9671   17 B   -1 0 1   23 B    0-1 1   25 B    0 0 0
  52 N    1     1.5701     2.9671   26 B    0 0 0
  52 N    2     2.5640     4.8452   49 N    0-1 1   51 N    0 0 0
  52 N    6     2.5640     4.8452   32 N    0-1 1   34 N    0 0 0   38 N   -1 0 1
                                    42 N   -1 0 1   45 N    0 0 0   47 N    0-1 1
  52 N    3     2.5640     4.8452   35 N    0 0 0   46 N    0 0 0   50 N    0-1 1
  52 N    1     2.6815     5.0673   53 PT  -1 0 0

  53 PT   1     1.9756     3.7334   43 N    0 0 0
  53 PT   1     1.9757     3.7335   37 N    0 0 0
  53 PT   1     1.9757     3.7335   51 N    1 0 0
  53 PT   1     1.9757     3.7335    9 B    0 0 1
  53 PT   1     1.9757     3.7335   15 B    0-1 1
  53 PT   1     1.9757     3.7335   17 B    0 0 1


 SYMMETRY ALLOWED ELASTIC DISTORTION 1
  0.5773503  0.0000000  0.0000000
  0.0000000  0.5773503  0.0000000
  0.0000000  0.0000000  0.5773503

 SYMMETRY ALLOWED ELASTIC DISTORTION 2
  0.8164966  0.0000000  0.0000000
  0.0000000 -0.4082483  0.0000000
  0.0000000  0.0000000 -0.4082483

 SYMMETRY ALLOWED ELASTIC DISTORTION 3
  0.0000000  0.7071068  0.0000000
  0.7071068  0.0000000  0.0000000
  0.0000000  0.0000000  0.0000000

 SYMMETRY ALLOWED ELASTIC DISTORTION 4
  0.0000000  0.0000000  0.0000000
  0.0000000  0.7071068  0.0000000
  0.0000000  0.0000000 -0.7071068

 SYMMETRY ALLOWED ELASTIC DISTORTION 5
  0.0000000  0.0000000  0.7071068
  0.0000000  0.0000000  0.0000000
  0.7071068  0.0000000  0.0000000

 SYMMETRY ALLOWED ELASTIC DISTORTION 6
  0.0000000  0.0000000  0.0000000
  0.0000000  0.0000000  0.7071068
  0.0000000  0.7071068  0.0000000

 SYMMETRY ALLOWED INTERNAL DEGREE(S) OF FREEDOM: 156
 TTTTTTTTTTTTTTTTTTTTTTTTTTTTTT SYMM        TELAPSE        3.60 TCPU        2.10
 TTTTTTTTTTTTTTTTTTTTTTTTTTTTTT INT_SCREEN  TELAPSE        3.62 TCPU        2.13

 *******************************************************************************
 *                             OPTIMIZATION STARTS                             *
 *******************************************************************************
 RECLASIFICATION OF INDICES FOR INTEGRAL CALC ACCORDING TO DIFFERENT CRITERIA:
           FIXDELTE                  FIXDELTX              FIXDELTN
          0.10000000               0.80000000                162
 *******************************************************************************

 *******************************************************************************
 COORDINATE AND CELL OPTIMIZATION - POINT    1

 DFT PARAMETERS

     ATOM       ELECTRONS   NET CHARGE   R(ANGSTROM)
   1   5  B       5.0000      0.0000     0.89000000
  27   7  N       7.0000      0.0000     0.74000000
  53 278  PT     18.0000      0.0000     1.39000000

 SIZE OF GRID=    1277608
 TTTTTTTTTTTTTTTTTTTTTTTTTTTTTT MAKE_GRID2  TELAPSE        5.61 TCPU        4.11
 BECKE WEIGHT FUNCTION
 RADSAFE =     2.00
 TOLERANCES - DENSITY:10**- 6; POTENTIAL:10**- 9; GRID WGT:10**-14

 RADIAL INTEGRATION  - INTERVALS (POINTS,UPPER LIMIT):            1( 75,  4.0*R)

 ANGULAR INTEGRATION - INTERVALS (ACCURACY LEVEL [N. POINTS] UPPER LIMIT):
  1(  4[  86]   0.2)  2(  8[ 194]   0.5)  3( 12[ 350]   0.9)  4( 16[ 974]   3.5)
  5( 12[ 350]9999.0)
 TTTTTTTTTTTTTTTTTTTTTTTTTTTTTT INT_CALC    TELAPSE        5.69 TCPU        4.19

 *******************************************************************************
 cBN_bulk_opt_3x3_v_N_v_B_Pt                                                     
 CRYSTAL - SCF - TYPE OF CALCULATION :  UNRESTRICTED OPEN SHELL
 *******************************************************************************

 CAPPA:IS1  6;IS2  6;IS3  6; K PTS MONK NET 112; SYMMOPS:K SPACE   2;G SPACE   1

 TTTTTTTTTTTTTTTTTTTTTTTTTTTTTT SDIK        TELAPSE        7.82 TCPU        6.31

 AAAAAAAAAAAAAAAAAAAAAAAAAAAAAAAAAAAAAAAAAAAAAAAAAAAAAAAAAAAAAAAAAAAAAAAAAAAAAAA
         ATOMIC WAVEFUNCTION(S)


 NUCLEAR CHARGE  5.0  SYMMETRY SPECIES            S    P
 N. ELECTRONS    5.0  NUMBER OF PRIMITIVE GTOS    7    4
                      NUMBER OF CONTRACTED GTOS   3    2
                      NUMBER OF CLOSED SHELLS     2    0
                      OPEN SHELL OCCUPATION       0    1

  ZNUC SCFIT  TOTAL HF ENERGY   KINETIC ENERGY   VIRIAL THEOREM ACCURACY
   5.0   7   -2.443453004E+01  2.471954539E+01 -1.988470041E+00  3.9E-06

 NUCLEAR CHARGE  7.0  SYMMETRY SPECIES            S    P
 N. ELECTRONS    7.0  NUMBER OF PRIMITIVE GTOS    7    4
                      NUMBER OF CONTRACTED GTOS   3    2
                      NUMBER OF CLOSED SHELLS     2    0
                      OPEN SHELL OCCUPATION       0    3

  ZNUC SCFIT  TOTAL HF ENERGY   KINETIC ENERGY   VIRIAL THEOREM ACCURACY
   7.0   9   -5.433012196E+01  5.433288047E+01 -1.999949230E+00  2.1E-06

 NUCLEAR CHARGE 18.0  SYMMETRY SPECIES            S    P    D
 N. ELECTRONS   18.0  NUMBER OF PRIMITIVE GTOS    6    6    6
                      NUMBER OF CONTRACTED GTOS   4    3    3
                      NUMBER OF CLOSED SHELLS     2    1    0
                      OPEN SHELL OCCUPATION       0    0    8

  ZNUC SCFIT  TOTAL HF ENERGY   KINETIC ENERGY   VIRIAL THEOREM ACCURACY
  18.0  18   -1.183573729E+02  4.056074572E+01 -3.918027536E+00  3.6E-06

 AAAAAAAAAAAAAAAAAAAAAAAAAAAAAAAAAAAAAAAAAAAAAAAAAAAAAAAAAAAAAAAAAAAAAAAAAAAAAAA

 CHARGE NORMALIZATION FACTOR   1.00000000
 TOTAL ATOMIC CHARGES:
   5.0000000   5.0000000   5.0000000   5.0000000   5.0000000   5.0000000
   5.0000000   5.0000000   5.0000000   5.0000000   5.0000000   5.0000000
   5.0000000   5.0000000   5.0000000   5.0000000   5.0000000   5.0000000
   5.0000000   5.0000000   5.0000000   5.0000000   5.0000000   5.0000000
   5.0000000   5.0000000   7.0000000   7.0000000   7.0000000   7.0000000
   7.0000000   7.0000000   7.0000000   7.0000000   7.0000000   7.0000000
   7.0000000   7.0000000   7.0000000   7.0000000   7.0000000   7.0000000
   7.0000000   7.0000000   7.0000000   7.0000000   7.0000000   7.0000000
   7.0000000   7.0000000   7.0000000   7.0000000  18.0000000
 SUMMED SPIN DENSITY           0.00000000
 TOTAL ATOMIC SPINS  :
   0.0000000   0.0000000   0.0000000   0.0000000   0.0000000   0.0000000
   0.0000000   0.0000000   0.0000000   0.0000000   0.0000000   0.0000000
   0.0000000   0.0000000   0.0000000   0.0000000   0.0000000   0.0000000
   0.0000000   0.0000000   0.0000000   0.0000000   0.0000000   0.0000000
   0.0000000   0.0000000   0.0000000   0.0000000   0.0000000   0.0000000
   0.0000000   0.0000000   0.0000000   0.0000000   0.0000000   0.0000000
   0.0000000   0.0000000   0.0000000   0.0000000   0.0000000   0.0000000
   0.0000000   0.0000000   0.0000000   0.0000000   0.0000000   0.0000000
   0.0000000   0.0000000   0.0000000   0.0000000   0.0000000
 TTTTTTTTTTTTTTTTTTTTTTTTTTTTTT MOQGAD      TELAPSE        8.41 TCPU        6.91
 TTTTTTTTTTTTTTTTTTTTTTTTTTTTTT SHELLXN     TELAPSE      716.39 TCPU      713.73
 TTTTTTTTTTTTTTTTTTTTTTTTTTTTTT MONMO3      TELAPSE      775.53 TCPU      772.75
 NUMERICALLY INTEGRATED DENSITY    165.0003359790    165.0003359790
 TTTTTTTTTTTTTTTTTTTTTTTTTTTTTT NUMDFT      TELAPSE      779.09 TCPU      776.31
 CYC   0 ETOT(AU) -2.199388440789E+03 DETOT -2.20E+03 tst  0.00E+00 PX  1.00E+00
 TTTTTTTTTTTTTTTTTTTTTTTTTTTTTT DIIS        TELAPSE      779.51 TCPU      776.73
 TTTTTTTTTTTTTTTTTTTTTTTTTTTTTT FDIK        TELAPSE      832.45 TCPU      829.52
 POSSIBLY CONDUCTING STATE - EFERMI(AU) -1.7771707E-01 (RES. CHARGE  8.53E-13;IT. 12)
 TTTTTTTTTTTTTTTTTTTTTTTTTTTTTT PDIG        TELAPSE      833.56 TCPU      830.63
 CHARGE NORMALIZATION FACTOR   1.00000000
 TOTAL ATOMIC CHARGES:
   4.5006259   4.5252931   4.5055229   4.5028352   4.5014897   4.5055208
   4.5028359   4.5252816   4.6911832   4.5273138   4.5253304   4.5163488
   4.5028442   4.5253127   4.6911928   4.5273477   4.6915449   4.5006636
   4.5015498   4.5163374   4.5006642   4.5253150   4.5055258   4.5272850
   4.5253215   4.5163465   7.4986295   7.5003043   7.4467804   7.4986282
   7.5009550   7.4910574   7.5118281   7.5009701   7.4467447   7.5028910
   7.5887903   7.4468798   7.5118210   7.5009649   7.4467490   7.5118494
   7.5888976   7.5028543   7.5002240   7.4983344   7.4986260   7.5002227
   7.4467853   7.5028624   7.5888374   7.4468782  17.1328022
 SUMMED SPIN DENSITY          -0.00000000
 TOTAL ATOMIC SPINS  :
   0.0000000   0.0000000  -0.0000000  -0.0000000   0.0000000   0.0000000
   0.0000000   0.0000000   0.0000000  -0.0000000  -0.0000000  -0.0000000
  -0.0000000   0.0000000  -0.0000000   0.0000000  -0.0000000  -0.0000000
  -0.0000000   0.0000000  -0.0000000  -0.0000000   0.0000000   0.0000000
  -0.0000000  -0.0000000   0.0000000   0.0000000   0.0000000   0.0000000
  -0.0000000  -0.0000000  -0.0000000  -0.0000000  -0.0000000  -0.0000000
  -0.0000000  -0.0000000   0.0000000  -0.0000000  -0.0000000  -0.0000000
  -0.0000000   0.0000000   0.0000000   0.0000000   0.0000000   0.0000000
  -0.0000000   0.0000000   0.0000000  -0.0000000  -0.0000000
 TTTTTTTTTTTTTTTTTTTTTTTTTTTTTT MOQGAD      TELAPSE      833.59 TCPU      830.66
 TTTTTTTTTTTTTTTTTTTTTTTTTTTTTT SHELLXN     TELAPSE     1570.85 TCPU     1565.51
 TTTTTTTTTTTTTTTTTTTTTTTTTTTTTT MONMO3      TELAPSE     1629.57 TCPU     1624.15
 NUMERICALLY INTEGRATED DENSITY    165.0002009409    165.0002009409
 TTTTTTTTTTTTTTTTTTTTTTTTTTTTTT NUMDFT      TELAPSE     1640.82 TCPU     1635.37
 CYC   1 ETOT(AU) -2.187762089343E+03 DETOT  1.16E+01 tst  0.00E+00 PX  1.00E+00
 TTTTTTTTTTTTTTTTTTTTTTTTTTTTTT DIIS        TELAPSE     1641.31 TCPU     1635.86
[...]
                 24 B    (  0  0  0)     3.012     1.594     0.000
                 51 N    (  0  0  0)     4.678     2.475    -0.000
                 29 N    (  0  0  0)     4.763     2.520     0.000

 ATOM A  34 N    ATOM B     CELL      R(AB)/AU R(AB)/ANG    OVPOP(AB)
                  8 B    (  0  0  0)     2.876     1.522    -0.000
                 25 B    (  0  0  0)     2.928     1.550     0.000
                  7 B    (  0  0  0)     2.938     1.554    -0.000
                  5 B    (  0  0  0)     2.940     1.556     0.000
                 43 N    (  0  0  0)     4.571     2.419    -0.000
                 51 N    (  0  0  0)     4.600     2.434    -0.000

 ATOM A  35 N    ATOM B     CELL      R(AB)/AU R(AB)/ANG    OVPOP(AB)
                 26 B    (  0  0  0)     2.889     1.529     0.000
                  6 B    (  0 -1  1)     2.919     1.544    -0.000
                  9 B    (  0  0  1)     2.940     1.556    -0.000
                  8 B    (  0  0  0)     2.988     1.581     0.000
                 52 N    (  0  0  0)     4.669     2.471    -0.000
                 32 N    (  0 -1  1)     4.738     2.507     0.000

 ATOM A  36 N    ATOM B     CELL      R(AB)/AU R(AB)/ANG    OVPOP(AB)
                 12 B    (  0  0  0)     2.901     1.535     0.000
                 10 B    (  0  0  0)     2.952     1.562    -0.000
                 16 B    (  0  0  0)     2.963     1.568    -0.000
                  1 B    (  0  0  0)     2.979     1.576     0.000
                 43 N    (  0  0  0)     4.708     2.492    -0.000
                 39 N    (  0  0  0)     4.753     2.515     0.000

 ATOM A  37 N    ATOM B     CELL      R(AB)/AU R(AB)/ANG    OVPOP(AB)
                 11 B    (  1  0  0)     2.889     1.529     0.000
                  2 B    (  0  0  0)     2.899     1.534     0.000
                 10 B    (  0  0  0)     2.941     1.556     0.000
                 53 PT   (  0  0  0)     3.898     2.063     0.000
                 40 N    (  1  0  0)     4.668     2.470     0.000
                 31 N    (  0  0  0)     4.685     2.479     0.000

 ATOM A  38 N    ATOM B     CELL      R(AB)/AU R(AB)/ANG    OVPOP(AB)
                 12 B    (  0  0  0)     2.909     1.539     0.000
                 11 B    (  1  0 -1)     2.920     1.545    -0.000
                  3 B    (  0  0  0)     2.976     1.575    -0.000
                 17 B    (  0  0  0)     3.006     1.591     0.000
                 37 N    (  0  0 -1)     4.732     2.504    -0.000
                 40 N    (  1  0 -1)     4.751     2.514     0.000

 ATOM A  39 N    ATOM B     CELL      R(AB)/AU R(AB)/ANG    OVPOP(AB)
                 15 B    (  0  0  0)     2.793     1.478     0.000
                 13 B    (  1  0  0)     2.944     1.558    -0.000
                  4 B    (  0  0  0)     2.995     1.585    -0.000
                 10 B    (  0  0  0)     3.012     1.594     0.000
                 37 N    (  0  0  0)     4.739     2.508     0.000
                 40 N    (  1  0  0)     4.745     2.511    -0.000

 ATOM A  40 N    ATOM B     CELL      R(AB)/AU R(AB)/ANG    OVPOP(AB)
                 14 B    (  0  0  0)     2.894     1.532     0.000
                 11 B    (  0  0  0)     2.918     1.544     0.000
                 13 B    (  0  0  0)     2.926     1.548     0.000
                  5 B    ( -1  1  0)     2.973     1.573    -0.000
                 43 N    ( -1  1  0)     4.577     2.422    -0.000
                 37 N    ( -1  0  0)     4.668     2.470     0.000

 ATOM A  41 N    ATOM B     CELL      R(AB)/AU R(AB)/ANG    OVPOP(AB)
                 15 B    (  0  0  0)     2.974     1.574     0.000
                  6 B    (  0  0  0)     3.010     1.593     0.000
                 14 B    (  1  0 -1)     3.018     1.597     0.000
                 12 B    (  0  0  0)     3.203     1.695    -0.000
                 53 PT   (  0  1 -1)     4.449     2.354     0.000
                 43 N    (  0  1 -1)     4.749     2.513    -0.000

 ATOM A  42 N    ATOM B     CELL      R(AB)/AU R(AB)/ANG    OVPOP(AB)
                 17 B    (  0  0  0)     2.917     1.544    -0.000
                 13 B    (  1 -1  0)     2.948     1.560    -0.000
                 16 B    (  0  0  0)     2.964     1.568     0.000
                  7 B    (  0  0  0)     2.970     1.572    -0.000
                 43 N    (  0  0  0)     4.573     2.420    -0.000
                 52 N    (  1  0 -1)     4.763     2.521     0.000

 ATOM A  43 N    ATOM B     CELL      R(AB)/AU R(AB)/ANG    OVPOP(AB)
                 16 B    (  0  0  0)     2.815     1.490    -0.000
                 14 B    (  1 -1  0)     2.890     1.529    -0.000
                  8 B    (  0  0  0)     2.898     1.534    -0.000
                 53 PT   (  0  0  0)     3.782     2.001    -0.000
                 34 N    (  0  0  0)     4.571     2.419    -0.000
                 42 N    (  0  0  0)     4.573     2.420    -0.000

 ATOM A  44 N    ATOM B     CELL      R(AB)/AU R(AB)/ANG    OVPOP(AB)
                 20 B    (  0  0  0)     2.935     1.553     0.000
                 10 B    ( -1  0  0)     2.948     1.560    -0.000
                 18 B    (  0  0  0)     2.951     1.562     0.000
                 24 B    (  0  0  0)     2.958     1.566    -0.000
                 45 N    (  0  0  0)     4.765     2.522     0.000
                 29 N    (  0  0  0)     4.780     2.530     0.000

 ATOM A  45 N    ATOM B     CELL      R(AB)/AU R(AB)/ANG    OVPOP(AB)
                 18 B    (  0  0  0)     2.916     1.543    -0.000
                 19 B    (  0  0  0)     2.945     1.559    -0.000
                 11 B    (  0  0  0)     2.974     1.574     0.000
                 25 B    (  0  0  0)     2.983     1.578    -0.000
                 44 N    (  0  0  0)     4.765     2.522     0.000
                 52 N    (  0  0  0)     4.767     2.523    -0.000

 ATOM A  46 N    ATOM B     CELL      R(AB)/AU R(AB)/ANG    OVPOP(AB)
                 12 B    ( -1  0  1)     2.909     1.539     0.000
                 19 B    (  0  0  0)     2.951     1.562     0.000
                 20 B    (  0  0  1)     2.962     1.567    -0.000
                 26 B    (  0  0  0)     2.968     1.571    -0.000
                 49 N    (  0  0  1)     4.756     2.517    -0.000
                 35 N    (  0  0  0)     4.779     2.529     0.000

 ATOM A  47 N    ATOM B     CELL      R(AB)/AU R(AB)/ANG    OVPOP(AB)
                 23 B    (  0  0  0)     2.926     1.548    -0.000
                 21 B    (  0  0  0)     2.945     1.559    -0.000
                 18 B    (  0  0  0)     2.957     1.565     0.000
                 13 B    (  0  0  0)     2.963     1.568     0.000
                 49 N    (  0  0  0)     4.762     2.520     0.000
                 48 N    (  0  0  0)     4.789     2.534    -0.000

 ATOM A  48 N    ATOM B     CELL      R(AB)/AU R(AB)/ANG    OVPOP(AB)
                 21 B    (  0  0  0)     2.922     1.546     0.000
                 19 B    (  0  0  0)     2.946     1.559     0.000
                 14 B    (  0  0  0)     2.967     1.570     0.000
                 22 B    (  0  0  0)     2.982     1.578    -0.000
                 51 N    (  0  1  0)     4.755     2.516     0.000
                 50 N    (  0  0  0)     4.773     2.526     0.000

 ATOM A  49 N    ATOM B     CELL      R(AB)/AU R(AB)/ANG    OVPOP(AB)
                 15 B    ( -1  0  0)     2.827     1.496     0.000
                 20 B    (  0  0  0)     2.907     1.538    -0.000
                 23 B    (  0  0  0)     2.952     1.562     0.000
                 22 B    (  0  0 -1)     3.010     1.593     0.000
                 29 N    (  0  0  0)     4.655     2.463     0.000
                 46 N    (  0  0 -1)     4.756     2.517    -0.000

 ATOM A  50 N    ATOM B     CELL      R(AB)/AU R(AB)/ANG    OVPOP(AB)
                 26 B    (  0  1 -1)     2.928     1.550    -0.000
                 21 B    (  0  0  0)     2.938     1.555     0.000
                 16 B    ( -1  1  0)     2.964     1.568     0.000
                 24 B    (  0  1  0)     2.971     1.572     0.000
                 35 N    (  0  1 -1)     4.747     2.512    -0.000
                 48 N    (  0  0  0)     4.773     2.526     0.000

 ATOM A  51 N    ATOM B     CELL      R(AB)/AU R(AB)/ANG    OVPOP(AB)
                 22 B    (  0 -1  0)     2.814     1.489    -0.000
                 24 B    (  0  0  0)     2.830     1.497    -0.000
                 25 B    (  0  0  0)     2.845     1.505    -0.000
                 53 PT   ( -1  0  0)     4.048     2.142    -0.000
                 34 N    (  0  0  0)     4.600     2.434    -0.000
                 31 N    (  0 -1  0)     4.625     2.447    -0.000

 ATOM A  52 N    ATOM B     CELL      R(AB)/AU R(AB)/ANG    OVPOP(AB)
                 26 B    (  0  0  0)     2.894     1.531    -0.000
                 17 B    ( -1  0  1)     2.936     1.554    -0.000
                 23 B    (  0 -1  1)     2.941     1.557     0.000
                 25 B    (  0  0  0)     2.957     1.565     0.000
                 35 N    (  0  0  0)     4.669     2.471    -0.000
                 42 N    ( -1  0  1)     4.763     2.521     0.000

 ATOM A  53 PT   ATOM B     CELL      R(AB)/AU R(AB)/ANG    OVPOP(AB)
                 43 N    (  0  0  0)     3.782     2.001    -0.000
                  9 B    (  0  0  1)     3.818     2.020     0.000
                 37 N    (  0  0  0)     3.898     2.063     0.000
                 15 B    (  0 -1  1)     3.934     2.082    -0.000
                 17 B    (  0  0  1)     4.009     2.121     0.000
                 51 N    (  1  0  0)     4.048     2.142    -0.000
 EIGENVECTORS IN FORTRAN UNIT 10

 FINAL OPTIMIZED GEOMETRY - DIMENSIONALITY OF THE SYSTEM      3
 (NON PERIODIC DIRECTION: LATTICE PARAMETER FORMALLY SET TO 500)
 *******************************************************************************
 LATTICE PARAMETERS (ANGSTROMS AND DEGREES) - BOHR = 0.5291772083 ANGSTROM
 PRIMITIVE CELL - CENTRING CODE 1/0 VOLUME=   316.230846 - DENSITY  4.439 g/cm^3
         A              B              C           ALPHA      BETA       GAMMA 
     7.69973108     7.62063314     7.63428483    59.746720  59.635854  60.413977
 *******************************************************************************
 ATOMS IN THE ASYMMETRIC UNIT   53 - ATOMS IN THE UNIT CELL:   53
     ATOM                 X/A                 Y/B                 Z/C    
 *******************************************************************************
      1 T   5 B    -1.150011802214E-03  1.465372308747E-03  2.843367108206E-04
      2 T   5 B    -3.913383485901E-03  3.021338233173E-03  3.360412559812E-01
      3 T   5 B    -5.360438396245E-04  2.374360852827E-03 -3.322956881995E-01
      4 T   5 B     1.219650042573E-03  3.341867351835E-01 -1.695687226524E-03
      5 T   5 B     8.261689277148E-04  3.345367704661E-01  3.312496917555E-01
      6 T   5 B    -5.024448846645E-03  3.402429281010E-01 -3.329257424270E-01
      7 T   5 B     1.740172664380E-03 -3.332632009776E-01 -5.059878042372E-03
      8 T   5 B    -5.775656202678E-03 -3.316093279797E-01  3.270573706797E-01
      9 T   5 B    -1.712948245613E-02 -3.228186320217E-01 -3.361404691958E-01
     10 T   5 B     3.343192824157E-01 -1.038759938636E-02  1.175336256123E-02
     11 T   5 B     3.325704246776E-01  2.488205217215E-03  3.360490629499E-01
     12 T   5 B     3.364519040924E-01 -1.407340947505E-03 -3.298391660313E-01
     13 T   5 B     3.356072663833E-01  3.340566441822E-01 -2.734996107336E-04
     14 T   5 B     3.340342631718E-01  3.380259331308E-01  3.232589549337E-01
     15 T   5 B     3.537767592035E-01  3.054756372033E-01 -3.150257055119E-01
     16 T   5 B     3.326966499221E-01 -3.320965897331E-01 -5.102678396869E-03
     17 T   5 B     3.394533532160E-01 -3.305092832500E-01 -3.398889017403E-01
     18 T   5 B    -3.333877400577E-01 -1.399170869553E-03  2.750009453480E-03
     19 T   5 B    -3.345790904256E-01  9.894693013018E-04  3.331659699947E-01
     20 T   5 B    -3.330652778031E-01 -3.316739098675E-03 -3.274673954805E-01
     21 T   5 B    -3.333340400053E-01  3.344022425700E-01  1.521359468047E-04
     22 T   5 B    -3.265112965024E-01  3.320879570669E-01  3.305756113402E-01
     23 T   5 B    -3.298060759629E-01  3.336581882224E-01 -3.322140187226E-01
     24 T   5 B    -3.324333086362E-01 -3.382440749540E-01  4.910715815364E-03
     25 T   5 B    -3.298204835939E-01 -3.370738692100E-01  3.305338124382E-01
     26 T   5 B    -3.375670782548E-01 -3.325199314648E-01 -3.325498506428E-01
     27 T   7 N    -8.333944960643E-02 -8.263958656088E-02 -8.318098432181E-02
     28 T   7 N    -8.552683359652E-02 -8.145514373168E-02  2.499581216118E-01
     29 T   7 N    -9.078869985672E-02 -7.741615621584E-02 -4.134160997839E-01
     30 T   7 N    -8.306618272851E-02  2.516645476862E-01 -8.408720338776E-02
     31 T   7 N    -8.033122968436E-02  2.482965656833E-01  2.488154567635E-01
     32 T   7 N    -8.116557844617E-02  2.517772239998E-01 -4.172931387608E-01
     33 T   7 N    -7.920082762443E-02 -4.166027067593E-01 -8.984530496941E-02
     34 T   7 N    -8.355340362473E-02 -4.160594024852E-01  2.457637071414E-01
     35 T   7 N    -9.464802397359E-02 -4.124454310851E-01 -4.178627128079E-01
     36 T   7 N     2.493006378881E-01 -8.081529060020E-02 -8.219389552447E-02
     37 T   7 N     2.395343405702E-01 -7.452444124949E-02  2.619566431577E-01
     38 T   7 N     2.496262788806E-01 -7.572801754113E-02 -4.146983510922E-01
     39 T   7 N     2.528393903037E-01  2.452440634730E-01 -7.792797336357E-02
     40 T   7 N     2.507931935546E-01  2.500572311114E-01  2.495539384468E-01
     41 T   7 N     2.477093097039E-01  2.704312092613E-01 -4.201291794275E-01
     42 T   7 N     2.514778249709E-01 -4.159629252323E-01 -9.091255573332E-02
     43 T   7 N     2.373285761045E-01 -4.183436754619E-01  2.342201098770E-01
     44 T   7 N    -4.177823494929E-01 -8.722633815505E-02 -7.684360215752E-02
     45 T   7 N    -4.174014768651E-01 -8.408634954328E-02  2.516950571668E-01
     46 T   7 N    -4.189130521707E-01 -8.063633475261E-02 -4.148793700745E-01
     47 T   7 N    -4.152869556104E-01  2.495386205913E-01 -8.240387502387E-02
     48 T   7 N    -4.168179708283E-01  2.510194629005E-01  2.496115073710E-01
     49 T   7 N    -4.091825039429E-01  2.433770695961E-01 -4.124257898165E-01
     50 T   7 N    -4.182591427667E-01 -4.163204744467E-01 -8.255440312099E-02
     51 T   7 N    -3.929075689890E-01 -4.292849600623E-01  2.455171906071E-01
     52 T   7 N    -4.137945515935E-01 -4.167617148907E-01 -4.170498728458E-01
     53 T 278 PT    2.830257725825E-01 -3.924630676757E-01  4.549729707359E-01

 T = ATOM BELONGING TO THE ASYMMETRIC UNIT
 INFORMATION **** fort.34 **** GEOMETRY OUTPUT FILE

 DIRECT LATTICE VECTORS CARTESIAN COMPONENTS (ANGSTROM)
          X                    Y                    Z
   0.669319052722E+01   0.380611214541E+01   0.238659403807E-01
  -0.521635538157E-02   0.762059319844E+01   0.241157069251E-01
   0.224033349229E+01   0.382822227525E+01   0.621352757256E+01


 CARTESIAN COORDINATES - PRIMITIVE CELL
 *******************************************************************************
 *      ATOM          X(ANGSTROM)         Y(ANGSTROM)         Z(ANGSTROM)
 *******************************************************************************
    1     5 B    -7.067882947165E-03  7.878436491472E-03  1.774626368601E-03
    2     5 B     7.266356989139E-01  1.294570234725E+00  2.087981074688E+00
    3     5 B    -7.480533886758E-01 -1.256047960338E+00 -2.064683954672E+00
    4     5 B     2.621208450926E-03  2.544851818375E+00 -2.447941877299E-03
    5     5 B     7.511107774894E-01 -3.799982620557E+00  2.042200694212E+00
    6     5 B    -7.812691126580E-01  1.299215584760E+00 -2.060557994646E+00
    7     5 B     2.049912239643E-03 -2.552410328178E+00 -3.943503855673E-02
    8     5 B     6.957898061517E-01 -1.296994272840E+00  2.024045155695E+00
    9     5 B    -8.660337042559E-01 -3.812086634523E+00 -2.096811884329E+00
   10     5 B     2.264048291336E+00  1.238291496383E+00  8.075818210435E-02
   11     5 B    -3.714384319721E+00 -1.234879704726E+00  2.072181288748E+00
   12     5 B     1.512994307800E+00  7.151263009846E-03 -2.041468950585E+00
   13     5 B    -4.449262439512E+00  1.590952050237E-02 -9.499742614759E-03
   14     5 B    -3.734990961170E+00  1.278724979492E+00  2.000836265325E+00
   15     5 B     1.660539144979E+00  2.468431160012E+00 -1.941610931282E+00
   16     5 B     2.217102698218E+00 -1.284026440040E+00 -3.177425852981E-02
   17     5 B     1.512285531833E+00 -2.527849530231E+00 -2.111778154093E+00
   18     5 B    -2.225259426792E+00 -1.269045991131E+00  9.096905641508E-03
   19     5 B    -1.493003878998E+00  9.528191046473E-03  2.062174757929E+00
   20     5 B    -2.962888234777E+00 -2.546577296275E+00 -2.042756592504E+00
   21     5 B    -2.232471764645E+00  1.280219127348E+00  1.054317051548E-03
   22     5 B    -1.446534991764E+00  2.553485534662E+00  2.054256712590E+00
   23     5 B    -2.953465575893E+00  1.560530179272E-02 -2.064045694391E+00
   24     5 B    -2.212273429885E+00 -3.824099638874E+00  1.442203961457E-02
   25     5 B    -1.465287069045E+00 -2.558679679986E+00  2.037780706610E+00
   26     5 B    -7.623553043065E-01 -1.263669755114E+00  4.131144597365E+00
   27     7 N    -7.437288822954E-01 -1.265397259665E+00 -5.208292259822E-01
   28     7 N    -1.203294195815E-02  1.063401462437E-02  1.549116153936E+00
   29     7 N    -1.533452170274E+00 -2.518157728839E+00 -2.572806037982E+00
   30     7 N    -7.456739371112E-01  1.279769428356E+00 -5.183915408388E-01
   31     7 N     1.846217249590E-02  2.538938324692E+00  1.550092367950E+00
   32     7 N    -1.479445835138E+00  1.227561770737E-02 -2.588727730644E+00
   33     7 N    -7.292165272806E-01 -3.820154783339E+00 -5.701931507035E-01
   34     7 N    -6.475871657490E-03 -2.547794978924E+00  1.515031923495E+00
   35     7 N     6.728358660695E-01 -1.274768910356E+00  3.604920807750E+00
   36     7 N     1.484896492215E+00  1.834923011114E-02 -5.067131598402E-01
   37     7 N     2.190507966413E+00  1.346602369271E+00  1.631594327784E+00
   38     7 N     7.421286642533E-01 -1.214544268704E+00 -2.572608307596E+00
   39     7 N     1.516438283187E+00  2.532914712838E+00 -4.722591273938E-01
   40     7 N    -4.456804240781E+00  9.367255227847E-03  1.538760059306E+00
   41     7 N     7.153254681627E-01  1.395307762970E+00 -2.598050785008E+00
   42     7 N     1.481684362867E+00 -2.560764905861E+00 -5.689171569600E-01
   43     7 N     2.115398763430E+00 -1.388081149926E+00  1.450908526946E+00
   44     7 N    -2.967997156070E+00 -2.549017303303E+00 -4.895441342331E-01
   45     7 N    -2.229428120307E+00 -1.265920069604E+00  1.551924697060E+00
   46     7 N    -1.492578900490E+00  3.104506928822E-02  3.623720811174E+00
   47     7 N    -2.965508560608E+00  5.543239311061E-03 -5.159121630297E-01
   48     7 N    -2.231938480627E+00  1.282029603136E+00  1.547073742437E+00
   49     7 N    -3.663977310592E+00 -1.281574452192E+00 -2.566515331823E+00
   50     7 N    -2.987482206373E+00  2.540006414336E+00 -5.088603634173E-01
   51     7 N    -2.077525530871E+00 -3.826961939157E+00  1.505798214475E+00
   52     7 N    -1.461429101532E+00 -2.519257296259E+00  3.602250589030E+00
   53   278 PT    2.915683831270E+00 -1.718358924679E-01  2.824277250334E+00

 ****    1 SYMMOPS - TRANSLATORS IN FRACTIONAL UNITS
 **** MATRICES AND TRANSLATORS IN THE CRYSTALLOGRAPHIC REFERENCE FRAME
   V INV                    ROTATION MATRICES                   TRANSLATORS
   1   1  1.00  0.00  0.00  0.00  1.00  0.00 -0.00  0.00  1.00  0.00  0.00  0.00
 TTTTTTTTTTTTTTTTTTTTTTTTTTTTTT END         TELAPSE   338037.73 TCPU   336832.79
 EEEEEEEEEE TERMINATION  DATE 09 04 2023 TIME 21:22:59.6
NODE    0 CPU TIME =    336832.786
    TOTAL CPU TIME =  21626058.259
