
         
 *******************************************************************************
 *                                                                             *
 *                               CRYSTAL17                                     *
 *                      public : 1.0.2 - March 1st, 2018                       *
 *                       HTTP://WWW.CRYSTAL.UNITO.IT                           *
 *                                                                             *
 *                              MAIN AUTHORS                                   *
 *                                                                             *
 *  R. DOVESI(1,11), V.R. SAUNDERS(2), C. ROETTI(1,11), R. ORLANDO(1,11),      *
 *  C.M. ZICOVICH-WILSON(1,3), F. PASCALE(4), B. CIVALLERI(1,11),              *
 *  K. DOLL(5), N.M. HARRISON(2,6), I.J. BUSH(7), Ph. D'ARCO(8),               *
 *  M. LLUNELL(9), M. CAUSA'(10), Y. NOEL(8), L. MASCHIO(1,11), A. ERBA(1,11)  *
 *  M. RE'RAT(14), S. CASASSA(1,11)                                            *
 *                                                                             *
 *        CONTRIBUTIONS TO THE CODE HAVE ALSO BEEN GIVEN BY                    *
 *                                                                             *
 *  M. FERRABONE(1,11), M. DE LA PIERRE(1,11), M. FERRERO(1,11),               *
 *  J. BAIMA(1,11), E. ALBANESE(1,11), M.F. PEINTINGER(12), R. BAST(13),       *
 *  B. KIRTMAN(15), V. LACIVITA(1,11), R. DEMICHELIS(1,16)                     *
 *  G. BRANDEBURG(17), S. SALUSTRO(1,11), G. SANSONE(1,11)                     *
 *  M.T. RUGGIERO(18)                                                          *
 *                                                                             *
 * (1) THEORETICAL CHEMISTRY GROUP - UNIVERSITA' DI TORINO - TORINO (ITALY)    *
 * (2) COMPUTATIONAL SCIENCE & ENGINEERING DEPARTMENT - STFC DARESBURY (UK)    *
 * (3) UNIVERSIDAD AUTONOMA DEL ESTADO DE MORELOS - CUERNAVACA (MEXICO)        *
 * (4) UNIVERSITE' DE LORRAINE - NANCY (FRANCE)                                *
 * (5) UNIVERSITAET STUTTGART- STUTTGART (GERMANY)                             *
 * (6) IMPERIAL COLLEGE - LONDON (UK)                                          *
 * (7) OXFORD E-RESEARCH CENTRE - OXFORD (UK)                                  *
 * (8) UPMC - SORBONNE UNIVERSITES - PARIS (FRANCE)                            *
 * (9) UNIVERSIDAD DE BARCELONA - BARCELONA (SPAIN)                            *
 *(10) UNIVERSITA' DI NAPOLI "FEDERICO II" - NAPOLI (ITALY)                    *
 *(11) NIS - NANOSTRUCTURED INTERFACES AND SURFACES - TORINO (ITALY)           *
 *(12) MPI FUER CHEMISCHE ENERGIEKONVERSION - MUELHEIM AN DER RUHR (GERMANY)   *
 *(13) UNIVERSITY OF TROMSO - TROMSO (NORWAY)                                  *
 *(14) UNIVERSITE' DE PAU ET DES PAYS DE L'ADOUR - PAU (FRANCE)                *
 *(15) UNIVERSITY OF CALIFORNIA SANTA BARBARA - SANTA BARBARA (USA)            *
 *(16) CURTIN UNIVERSITY - PERTH (AUSTRALIA)                                   *
 *(17) UNIVERSITY COLLEGE LONDON - LONDON (UK)                                 *
 *(18) CAMBRIDGE UNIVERSITY - CAMBRIDGE (UK)                                   *
 *                                                                             *
 *******************************************************************************
 EEEEEEEEEE STARTING  DATE 27 01 2023 TIME 10:29:45.4
 #c-BN                                                                           

 CRYSTAL CALCULATION
 (INPUT ACCORDING TO THE INTERNATIONAL TABLES FOR X-RAY CRYSTALLOGRAPHY)
 CRYSTAL FAMILY                       :  HEXAGONAL   
 CRYSTAL CLASS  (GROTH - 1921)        :  DIHEXAGONAL DIPYRAMIDAL              

 SPACE GROUP (CENTROSYMMETRIC)        :  P 63/M M C      

 LATTICE PARAMETERS  (ANGSTROMS AND DEGREES) - CONVENTIONAL CELL
        A           B           C        ALPHA        BETA       GAMMA
     2.51243     2.51243     7.70726    90.00000    90.00000   120.00000


 NUMBER OF IRREDUCIBLE ATOMS IN THE CONVENTIONAL CELL:    2

 INPUT COORDINATES

 ATOM AT. N.              COORDINATES
   1   5     3.333333300000E-01  6.666666700000E-01  2.500000000000E-01
   2   7     3.333333300000E-01  6.666666700000E-01  7.500000000000E-01

 *******************************************************************************

 << INFORMATION >>: FROM NOW ON, ALL COORDINATES REFER TO THE PRIMITIVE CELL

 *******************************************************************************

 LATTICE PARAMETERS  (ANGSTROMS AND DEGREES) - PRIMITIVE CELL
       A          B          C        ALPHA      BETA     GAMMA        VOLUME
    2.51243    2.51243    7.70726    90.00000  90.00000 120.00000     42.132599

 COORDINATES OF THE EQUIVALENT ATOMS (FRACTIONAL UNITS)

 N. ATOM EQUIV AT. N.          X                  Y                  Z

   1   1   1    5 B     3.33333330000E-01 -3.33333330000E-01  2.50000000000E-01
   2   1   2    5 B    -3.33333330000E-01  3.33333330000E-01 -2.50000000000E-01

   3   2   1    7 N     3.33333330000E-01 -3.33333330000E-01 -2.50000000000E-01
   4   2   2    7 N    -3.33333330000E-01  3.33333330000E-01  2.50000000000E-01

 NUMBER OF SYMMETRY OPERATORS         :   24
 *******************************************************************************
 * GEOMETRY EDITING - INPUT COORDINATES ARE GIVEN IN ANGSTROM         
 *******************************************************************************

 GEOMETRY NOW FULLY CONSISTENT WITH THE GROUP


 *******************************************************************************
  * CELL ROTATION 
 *******************************************************************************

 DIRECT-LATTICE FUNDAMENTAL VECTORS 
             X         Y         Z
 A1       2.1758   -1.2562    0.0000
 A2       0.0000    2.5124    0.0000
 A3       0.0000    0.0000    7.7073
 **********************************************************************
 *            DEFINITION OF THE NEW LATTICE VECTORS                   *
 *            TWO OF WHICH BELONG TO THE SELECTED PLANE               *
 **********************************************************************

                       PLANE INDICES =   0   0   1

 NEW FUNDAMENTAL DIRECT-LATTICE VECTORS B1,B2,B3
 B1=      1 A1    0 A2    0 A3 
 B2=      0 A1    1 A2    0 A3 
 B3=      0 A1    0 A2    1 A3 

 LATTICE PARAMETERS  (ANGSTROM  AND DEGREES)
        A           B           C        ALPHA        BETA       GAMMA
     2.51243     2.51243     7.70726    90.00000    90.00000   120.00000

 NUMBER OF PRIMITIVE CELLS CONTAINED IN THE NEW FUNDAMENTAL CELL :  1

 *** THE CARTESIAN FRAME IS ROTATED SO THAT
     THE SELECTED PLANE IS IN THE X-Y PLANE

 NEW FUNDAMENTAL DIRECT-LATTICE VECTORS B1,B2,B3
             X         Y         Z
 B1       2.5124    0.0000    0.0000
 B2      -1.2562    2.1758    0.0000
 B3       0.0000    0.0000    7.7073

 VOLUME OF THE 3D CELL      42.133
 AREA OF THE 2D CELL         5.467
 B3 MODULUS                  7.707
 B3 Z PROJECTION             7.707
 B3 X-Y PROJECTION           0.000

 UNIT CELL ATOM COORDINATES :
 LAB AT.NO.       CARTESIAN (ANG)               CRYSTALLOGRAPHIC
   1   5       1.256    -0.725     1.927     0.333333  -0.333333   0.250000
   2   5      -1.256     0.725     5.780    -0.333333   0.333333   0.750000
   3   7       1.256    -0.725     5.780     0.333333  -0.333333   0.750000
   4   7      -1.256     0.725     1.927    -0.333333   0.333333   0.250000
   1   5       1.256    -0.725     1.927     0.333333  -0.333333   0.250000
   2   5      -1.256     0.725     5.780    -0.333333   0.333333   0.750000
   3   7       1.256    -0.725     5.780     0.333333  -0.333333   0.750000
   4   7      -1.256     0.725     1.927    -0.333333   0.333333   0.250000

 ATOMS CLASSIFIED ACCORDING TO THE Z COORDINATE :
  LAYER   1 Z=   5.7804; LABEL AT.NO.              X,Y,Z (ANG.)
                           2     5       -1.25621     0.72528     5.78045
                           3     7        1.25621    -0.72528     5.78045
  LAYER   2 Z=   1.9268; LABEL AT.NO.              X,Y,Z (ANG.)
                           1     5        1.25621    -0.72528     1.92682
                           4     7       -1.25621     0.72528     1.92682

 *************************** CELL ROTATION COMPLETE ***************************


 *******************************************************************************
 * TWO DIMENSIONAL SLAB PARALLEL TO THE SELECTED PLANE
 *******************************************************************************
         SURFACE LAYER NO.  1
         TOTAL NUMBER OF LAYERS:   1

 ORIGIN SHIFT TO MAXIMIZE USE OF SYMMETRY=     0.750

 NUMBER OF SYMMOPS= 12

 COORDINATES OF THE ATOMS BELONGING TO THE SLAB
 LAB AT.N.     CARTESIAN (ANG)        FRACTIONAL (3D)      FRAC (2D)     Z(ANG)
   1   5 -1.25621  0.72528  0.00000 -0.333  0.333  0.000 -0.333  0.333   0.00000
   2   7  1.25621 -0.72528  0.00000  0.333 -0.333  0.000  0.333 -0.333   0.00000


 ******************************* SLAB GENERATED *******************************
 INFORMATION **** NEW DEFAULT **** FINALRUN 4 FOR GEOMETRY OPTIMIZATIONS
 INFORMATION **** NEW DEFAULT **** OPTGEOM OPTIMIZES BOTH ATOMIC COORDINATES AND CELL PARAMETERS
 INFORMATION **** NEW DEFAULT **** TOL. ON ATOMIC DISP TO REDEFINE REF. GEOMETRY: 0.8 Angs
 INFORMATION **** NEW DEFAULT **** N POINTS TO REDEFINE REF. GEOMETRY: N OF OPT DEGS OF FREEDOM
 INFORMATION **** NEW DEFAULT **** TOL. ON ENERGY TO REDEFINE REF. GEOMETRY: 10**-3*(5*N. ATOMS)
 INFORMATION **** MAXCYCLE ****   MAXIMUM NUMBER OF OPTIMIZATION CYCLES         800

 IMPORTANT INFORMATION:
 THE COORDINATE SYSTEM ADOPTED IN THE OPTIMIZATION IS NOT IN
 GENERAL HOMOGENEOUS UNITS. FOR THIS REASON THE GRADIENT AND 
 HESSIAN MATRIX IN TERMS OF THIS SYSTEM ARE GIVEN WITHOUT
 UNITS. FOR MORE DETAILS SEE THE MANUAL.

 *******************************************************************************
 COMBINED CELL/ATOM OPTIMIZATION CONTROL

 INITIAL TRUST RADIUS         0.50000 MAXIMUM TRUST RADIUS               4.00000
 MAXIMUM GRADIENT COMPONENT   0.00045 MAXIMUM DISPLACEMENT COMPONENT     0.00180
 R.M.S. OF GRADIENT COMPONENT 0.00030 R.M.S. OF DISPLACEMENT COMPONENTS  0.00120
 THRESHOLD ON ENERGY CHANGE 0.100E-06 EXTRAPOLATING POLYNOMIAL ORDER           2
 MAXIMUM ALLOWED NUMBER OF STEPS  800 SORTING OF ENERGY POINTS:               NO
 ANALYTICAL  GRADIENT                 HESSIAN UPDATING                      BFGS
 STEP SIZE NUMERICAL GRADIENT 0.00100
 INITIAL HESSIAN MATRIX: SCHLEGEL MODEL 2
 *******************************************************************************


 GCALCO - MAX INDICES DIRECT LATTICE VECTOR    83    83     0
 NO.OF VECTORS CREATED 6999 STARS  503 RMAX   208.74134 BOHR

 GEOMETRY FOR WAVE FUNCTION - DIMENSIONALITY OF THE SYSTEM    2
 (NON PERIODIC DIRECTION: LATTICE PARAMETER FORMALLY SET TO 500)
 *******************************************************************************
 LATTICE PARAMETERS (ANGSTROMS AND DEGREES) - BOHR = 0.5291772083 ANGSTROM
 PRIMITIVE CELL
         A              B              C           ALPHA      BETA       GAMMA 
     2.51242823     2.51242823   500.00000000    90.000000  90.000000 120.000000
 *******************************************************************************
 ATOMS IN THE ASYMMETRIC UNIT    2 - ATOMS IN THE UNIT CELL:    2
     ATOM                 X/A                 Y/B             Z(ANGSTROM)
 *******************************************************************************
      1 T   5 B    -3.333333333333E-01  3.333333333333E-01  0.000000000000E+00
      2 T   7 N     3.333333333333E-01 -3.333333333333E-01  0.000000000000E+00

 T = ATOM BELONGING TO THE ASYMMETRIC UNIT

 ****   12 SYMMOPS - TRANSLATORS IN FRACTIONAL UNITS
 **** MATRICES AND TRANSLATORS IN THE CRYSTALLOGRAPHIC REFERENCE FRAME
   V INV                    ROTATION MATRICES                   TRANSLATORS
   1   1  1.00  0.00  0.00  0.00  1.00  0.00  0.00  0.00  1.00  0.00  0.00  0.00
   2   3  0.00 -1.00  0.00  1.00 -1.00  0.00  0.00  0.00  1.00  0.00  0.00  0.00
   3   2 -1.00  1.00  0.00 -1.00  0.00  0.00  0.00  0.00  1.00  0.00  0.00  0.00
   4   4  0.00 -1.00  0.00 -1.00  0.00  0.00  0.00  0.00 -1.00  0.00  0.00  0.00
   5   5  1.00 -0.00  0.00  1.00 -1.00  0.00  0.00  0.00 -1.00  0.00  0.00  0.00
   6   6 -1.00  1.00  0.00 -0.00  1.00  0.00  0.00  0.00 -1.00  0.00  0.00  0.00
   7   7  1.00 -0.00  0.00 -0.00  1.00  0.00  0.00  0.00 -1.00  0.00  0.00  0.00
   8   9 -1.00  1.00  0.00 -1.00  0.00  0.00  0.00  0.00 -1.00  0.00  0.00  0.00
   9   8  0.00 -1.00  0.00  1.00 -1.00  0.00  0.00  0.00 -1.00  0.00  0.00  0.00
  10  10 -1.00  1.00  0.00 -0.00  1.00  0.00  0.00  0.00  1.00  0.00  0.00  0.00
  11  11  1.00 -0.00  0.00  1.00 -1.00  0.00  0.00  0.00  1.00  0.00  0.00  0.00
  12  12  0.00 -1.00  0.00 -1.00  0.00  0.00  0.00  0.00  1.00  0.00  0.00  0.00

 DIRECT LATTICE VECTORS CARTESIAN COMPONENTS (ANGSTROM)
          X                    Y                    Z
   0.251242823000E+01   0.000000000000E+00   0.000000000000E+00
  -0.125621411500E+01   0.217582667237E+01   0.000000000000E+00
   0.000000000000E+00   0.000000000000E+00   0.500000000000E+03


 CARTESIAN COORDINATES - PRIMITIVE CELL
 *******************************************************************************
 *      ATOM          X(ANGSTROM)         Y(ANGSTROM)         Z(ANGSTROM)
 *******************************************************************************
    1     5 B    -1.256214115000E+00  7.252755574551E-01  0.000000000000E+00
    2     7 N     1.256214115000E+00 -7.252755574551E-01  0.000000000000E+00

 *******************************************************************************
 LOCAL ATOMIC FUNCTIONS BASIS SET
 *******************************************************************************
   ATOM   X(AU)   Y(AU)   Z(AU)  N. TYPE  EXPONENT  S COEF   P COEF   D/F/G COEF
 *******************************************************************************
   1 B   -2.374   1.371   0.000
                                  1 S  
                                         8.565E+03 2.284E-04 0.000E+00 0.000E+00
                                         1.284E+03 1.768E-03 0.000E+00 0.000E+00
                                         2.923E+02 9.141E-03 0.000E+00 0.000E+00
                                         8.278E+01 3.634E-02 0.000E+00 0.000E+00
                                         2.702E+01 1.106E-01 0.000E+00 0.000E+00
                                         9.815E+00 2.337E-01 0.000E+00 0.000E+00
                                  2 S  
                                         3.932E+00 4.182E-01 0.000E+00 0.000E+00
                                         1.660E+00 2.233E-01 0.000E+00 0.000E+00
                                  3 S  
                                         5.332E-01 1.000E+00 0.000E+00 0.000E+00
                                  4 S  
                                         2.066E-01 1.000E+00 0.000E+00 0.000E+00
                           5-     7 P  
                                         2.245E+01 0.000E+00 5.027E-03 0.000E+00
                                         5.105E+00 0.000E+00 3.280E-02 0.000E+00
                                         1.499E+00 0.000E+00 1.315E-01 0.000E+00
                                         5.093E-01 0.000E+00 3.320E-01 0.000E+00
                           8-    10 P  
                                         5.386E-01 0.000E+00 1.000E+00 0.000E+00
                          11-    13 P  
                                         2.093E-01 0.000E+00 1.000E+00 0.000E+00
                          14-    18 D  
                                         7.501E-01 0.000E+00 0.000E+00 1.000E+00
   2 N    2.374  -1.371   0.000
                                 19 S  
                                         1.973E+04 2.189E-04 0.000E+00 0.000E+00
                                         2.958E+03 1.696E-03 0.000E+00 0.000E+00
                                         6.732E+02 8.795E-03 0.000E+00 0.000E+00
                                         1.907E+02 3.536E-02 0.000E+00 0.000E+00
                                         6.230E+01 1.110E-01 0.000E+00 0.000E+00
                                         2.265E+01 2.498E-01 0.000E+00 0.000E+00
                                 20 S  
                                         8.979E+00 4.062E-01 0.000E+00 0.000E+00
                                         3.686E+00 2.434E-01 0.000E+00 0.000E+00
                                 21 S  
                                         7.865E-01 1.000E+00 0.000E+00 0.000E+00
                                 22 S  
                                         2.678E-01 1.000E+00 0.000E+00 0.000E+00
                          23-    25 P  
                                         4.920E+01 0.000E+00 5.555E-03 0.000E+00
                                         1.135E+01 0.000E+00 3.805E-02 0.000E+00
                                         3.427E+00 0.000E+00 1.495E-01 0.000E+00
                                         1.179E+00 0.000E+00 3.495E-01 0.000E+00
                          26-    28 P  
                                         3.780E-01 0.000E+00 1.000E+00 0.000E+00
                          29-    31 P  
                                         1.474E-01 0.000E+00 1.000E+00 0.000E+00
                          32-    36 D  
                                         3.612E-01 0.000E+00 0.000E+00 1.000E+00
 INFORMATION **** SET_MPP **** PCRYSTAL CALCULATION
 INFORMATION **** READM2 **** NEW DEFAULT: FOCK/KS MATRIX MIXING SET TO 30 %
 INFORMATION **** READM2 **** NEW DEFAULT: FULL DIRECT SCF MODE
 INFORMATION **** READM2 **** NEW DEFAULT: COULOMB BIPOLAR BUFFER SET TO 32 Mb
 INFORMATION **** READM2 **** NEW DEFAULT: EXCHANGE BIPOLAR BUFFER SET TO 32 Mb

 *******************************************************************************
 NEW DEFAULT: DFT INTEGRATION GRID INCREASED TO XLGRID
 NEW DEFAULT: DIIS ACCELERATOR ACTIVE
 USE KEYWORD NODIIS TO TURN IT OFF
 *******************************************************************************

 WARNING **** RDDFTP **** HSE06-HJS ACTIVE
 RANGE SEPARATION - OMEGA:   0.110000000000000     
 INFORMATION **** DFTD3_INPUT **** PERFORM LATEST DISPERSION CORRECTION DFT-D3(BJ) WITH AUTOMATIC PARAMETER SETUP
 PLEASE CITE:
 (1) DFT-D3 Reference
  S. Grimme, J. Antony, S. Ehrlich, and H. Krieg, J. Chem. Phys. 132 (2010), 154104
 (2) BJ-Damping Reference
  S. Grimme, S. Ehrlich, and L. Goerigk, J. Comput. Chem. 32 (2011), 1456-1465
 (3) General DFT-D Review
  S. Grimme, A. Hansen, J. G. Brandenburg, and C. Bannwarth,
  Chem. Rev. 116 (2016), 5105-5154

 INFORMATION **** TOLINTEG **** COULOMB AND EXCHANGE SERIES TOLERANCES MODIFIED
 INFORMATION **** TOLDEE **** SCF TOL ON TOTAL ENERGY SET TO           8
 INFORMATION **** MAXCYCLE **** MAX NUMBER OF SCF CYCLES SET TO         800
 INFORMATION **** PPAN ****  MULLIKEN POPULATION ANALYSIS AT THE END OF SCF
 *******************************************************************************
 N. OF ATOMS PER CELL         2  COULOMB OVERLAP TOL         (T1) 10**   -9
 NUMBER OF SHELLS            16  COULOMB PENETRATION TOL     (T2) 10**   -9
 NUMBER OF AO                36  EXCHANGE OVERLAP TOL        (T3) 10**   -9
 N. OF ELECTRONS PER CELL    12  EXCHANGE PSEUDO OVP (F(G))  (T4) 10**  -11
 CORE ELECTRONS PER CELL      4  EXCHANGE PSEUDO OVP (P(G))  (T5) 10**  -38
 N. OF SYMMETRY OPERATORS    12  POLE ORDER IN MONO ZONE                  4
 *******************************************************************************
 TYPE OF CALCULATION :  UNRESTRICTED OPEN SHELL
 KOHN-SHAM HAMILTONIAN

 (EXCHANGE)[CORRELATION] FUNCTIONAL:(HSE06 SR/GGA)[PERDEW-BURKE-ERNZERHOF]

 RANGE-SEPARATED HYBRID FUNCTIONAL 
 OMEGA (SHORT-RANGE)[LONG-RANGE]:(    0.1100)[    0.0000]

 HYBRID EXCHANGE - PERCENTAGE OF FOCK EXCHANGE    25.0000

 SPIN POLARIZED DFT SELECTED

 CAPPA:IS1 18;IS2 18;IS3  1; K PTS MONK NET  37; SYMMOPS:K SPACE  24;G SPACE  12

 *******************************************************************************
 MAX NUMBER OF SCF CYCLES     800  CONVERGENCE ON DELTAP        10**-18
 WEIGHT OF F(I) IN F(I+1)      30% CONVERGENCE ON ENERGY        10**- 8
 SHRINK. FACT.(MONKH.)   18 18  1  NUMBER OF K POINTS IN THE IBZ     37
 SHRINKING FACTOR(GILAT NET)   36  NUMBER OF K POINTS(GILAT NET)    127
 *******************************************************************************
 *** K POINTS COORDINATES (OBLIQUE COORDINATES IN UNITS OF IS = 18)
   1-R(  0  0  0)   2-C(  1  0  0)   3-C(  2  0  0)   4-C(  3  0  0)
   5-C(  4  0  0)   6-C(  5  0  0)   7-C(  6  0  0)   8-C(  7  0  0)
   9-C(  8  0  0)  10-R(  9  0  0)  11-C(  1  1  0)  12-C(  2  1  0)
  13-C(  3  1  0)  14-C(  4  1  0)  15-C(  5  1  0)  16-C(  6  1  0)
  17-C(  7  1  0)  18-C(  8  1  0)  19-C(  2  2  0)  20-C(  3  2  0)
  21-C(  4  2  0)  22-C(  5  2  0)  23-C(  6  2  0)  24-C(  7  2  0)
  25-C(  8  2  0)  26-C(  3  3  0)  27-C(  4  3  0)  28-C(  5  3  0)
  29-C(  6  3  0)  30-C(  7  3  0)  31-C(  4  4  0)  32-C(  5  4  0)
  33-C(  6  4  0)  34-C(  7  4  0)  35-C(  5  5  0)  36-C(  6  5  0)
  37-C(  6  6  0)

 DIRECT LATTICE VECTORS COMPON. (A.U.)     RECIP. LATTICE VECTORS COMPON. (A.U.) 
        X            Y            Z              X            Y            Z
    4.7478013    0.0000000    0.0000000      1.3233884    0.7640587    0.0000000
   -2.3739006    4.1117165    0.0000000      0.0000000    1.5281173    0.0000000
    0.0000000    0.0000000  944.8630670      0.0000000    0.0000000    0.0066498

 DISK SPACE FOR EIGENVECTORS (FTN 10)       93312 REALS

 SYMMETRY ADAPTION OF THE BLOCH FUNCTIONS ENABLED
 TTTTTTTTTTTTTTTTTTTTTTTTTTTTTT gordsh1     TELAPSE        1.26 TCPU        0.32

 MATRIX SIZE: P(G)   91434, F(G)   13353, P(G) IRR   10155, F(G) IRR    3387
 MAX G-VECTOR INDEX FOR 1- AND 2-ELECTRON INTEGRALS 223

 TTTTTTTTTTTTTTTTTTTTTTTTTTTTTT INPUT       TELAPSE        1.47 TCPU        0.52

 NEIGHBORS OF THE NON-EQUIVALENT ATOMS

 N = NUMBER OF NEIGHBORS AT DISTANCE R
    ATOM  N     R/ANG      R/AU   NEIGHBORS (ATOM LABELS AND CELL INDICES)
   1 B    3     1.4506     2.7411    2 N   -1 0 0    2 N    0 1 0    2 N   -1 1 0
   1 B    6     2.5124     4.7478    1 B   -1-1 0    1 B    1 1 0    1 B   -1 0 0
                                     1 B    1 0 0    1 B    0-1 0    1 B    0 1 0
   1 B    3     2.9011     5.4823    2 N    0 0 0    2 N   -2 0 0    2 N    0 2 0
   1 B    6     3.8378     7.2524    2 N    1 1 0    2 N   -1-1 0    2 N   -2-1 0
                                     2 N    1 2 0    2 N   -2 1 0    2 N   -1 2 0
   1 B    6     4.3517     8.2234    1 B   -2-1 0    1 B    2 1 0    1 B   -1-2 0
                                     1 B    1 2 0    1 B   -1 1 0    1 B    1-1 0
   1 B    6     5.0249     9.4956    1 B   -2-2 0    1 B    2 2 0    1 B   -2 0 0
                                     1 B    2 0 0    1 B    0-2 0    1 B    0 2 0

   2 N    3     1.4506     2.7411    1 B    1 0 0    1 B    0-1 0    1 B    1-1 0
   2 N    6     2.5124     4.7478    2 N   -1-1 0    2 N    1 1 0    2 N   -1 0 0
                                     2 N    1 0 0    2 N    0-1 0    2 N    0 1 0
   2 N    3     2.9011     5.4823    1 B    0 0 0    1 B    2 0 0    1 B    0-2 0
   2 N    6     3.8378     7.2524    1 B   -1-1 0    1 B    1 1 0    1 B    2 1 0
                                     1 B   -1-2 0    1 B    2-1 0    1 B    1-2 0
   2 N    6     4.3517     8.2234    2 N   -2-1 0    2 N    2 1 0    2 N   -1-2 0
                                     2 N    1 2 0    2 N   -1 1 0    2 N    1-1 0
   2 N    6     5.0249     9.4956    2 N   -2-2 0    2 N    2 2 0    2 N   -2 0 0
                                     2 N    2 0 0    2 N    0-2 0    2 N    0 2 0


 SYMMETRY ALLOWED ELASTIC DISTORTION 1
  0.7071068  0.0000000
  0.0000000  0.7071068

 THERE ARE NO SYMMETRY ALLOWED DIRECTIONS
 WARNING **** INT_SCREEN **** CELL PARAMETERS OPTIMIZATION ONLY
 TTTTTTTTTTTTTTTTTTTTTTTTTTTTTT SYMM        TELAPSE        1.74 TCPU        0.78
 TTTTTTTTTTTTTTTTTTTTTTTTTTTTTT INT_SCREEN  TELAPSE        1.74 TCPU        0.78

 *******************************************************************************
 *                             OPTIMIZATION STARTS                             *
 *******************************************************************************
 RECLASIFICATION OF INDICES FOR INTEGRAL CALC ACCORDING TO DIFFERENT CRITERIA:
           FIXDELTE                  FIXDELTX              FIXDELTN
          0.10000000E-01           0.80000000                 10
 *******************************************************************************

 *******************************************************************************
 CELL OPTIMIZATION - POINT    1

 DFT PARAMETERS

     ATOM       ELECTRONS   NET CHARGE   R(ANGSTROM)
   1   5  B       5.0000      0.0000     0.89000000
   2   7  N       7.0000      0.0000     0.74000000

 SIZE OF GRID=      21654
 TTTTTTTTTTTTTTTTTTTTTTTTTTTTTT MAKE_GRID2  TELAPSE        1.83 TCPU        0.87
 BECKE WEIGHT FUNCTION
 RADSAFE =     2.00
 TOLERANCES - DENSITY:10**- 6; POTENTIAL:10**- 9; GRID WGT:10**-14

 RADIAL INTEGRATION  - INTERVALS (POINTS,UPPER LIMIT):            1( 99,  4.0*R)

 ANGULAR INTEGRATION - INTERVALS (ACCURACY LEVEL [N. POINTS] UPPER LIMIT):
  1(  6[ 146]   0.2)  2( 11[ 302]   0.5)  3( 14[ 590]   0.9)  4( 18[1454]   3.5)
  5( 14[ 590]9999.0)
 TTTTTTTTTTTTTTTTTTTTTTTTTTTTTT INT_CALC    TELAPSE        1.84 TCPU        0.88

 *******************************************************************************
 #c-BN                                                                           
 CRYSTAL - SCF - TYPE OF CALCULATION :  UNRESTRICTED OPEN SHELL
 *******************************************************************************

 CAPPA:IS1 18;IS2 18;IS3  1; K PTS MONK NET  37; SYMMOPS:K SPACE  24;G SPACE  12

 TTTTTTTTTTTTTTTTTTTTTTTTTTTTTT SDIK        TELAPSE        1.84 TCPU        0.88

 AAAAAAAAAAAAAAAAAAAAAAAAAAAAAAAAAAAAAAAAAAAAAAAAAAAAAAAAAAAAAAAAAAAAAAAAAAAAAAA
         ATOMIC WAVEFUNCTION(S)


 NUCLEAR CHARGE  5.0  SYMMETRY SPECIES            S    P
 N. ELECTRONS    5.0  NUMBER OF PRIMITIVE GTOS   10    6
                      NUMBER OF CONTRACTED GTOS   4    3
                      NUMBER OF CLOSED SHELLS     2    0
                      OPEN SHELL OCCUPATION       0    1

  ZNUC SCFIT  TOTAL HF ENERGY   KINETIC ENERGY   VIRIAL THEOREM ACCURACY
   5.0   9   -2.448590476E+01  2.479933273E+01 -1.987361435E+00  3.2E-06

 NUCLEAR CHARGE  7.0  SYMMETRY SPECIES            S    P
 N. ELECTRONS    7.0  NUMBER OF PRIMITIVE GTOS   10    6
                      NUMBER OF CONTRACTED GTOS   4    3
                      NUMBER OF CLOSED SHELLS     2    0
                      OPEN SHELL OCCUPATION       0    3

  ZNUC SCFIT  TOTAL HF ENERGY   KINETIC ENERGY   VIRIAL THEOREM ACCURACY
   7.0  11   -5.439370237E+01  5.446073139E+01 -1.998769223E+00  4.0E-06

 AAAAAAAAAAAAAAAAAAAAAAAAAAAAAAAAAAAAAAAAAAAAAAAAAAAAAAAAAAAAAAAAAAAAAAAAAAAAAAA

 CHARGE NORMALIZATION FACTOR   1.00000000
 TOTAL ATOMIC CHARGES:
   5.0000000   7.0000000
 SUMMED SPIN DENSITY           0.00000000
 TOTAL ATOMIC SPINS  :
   0.0000000   0.0000000
 TTTTTTTTTTTTTTTTTTTTTTTTTTTTTT MOQGAD      TELAPSE        1.86 TCPU        0.90
 TTTTTTTTTTTTTTTTTTTTTTTTTTTTTT SHELLXN     TELAPSE        2.73 TCPU        1.76
 TTTTTTTTTTTTTTTTTTTTTTTTTTTTTT MONMO3      TELAPSE        6.57 TCPU        5.59
 NUMERICALLY INTEGRATED DENSITY      5.9999931066      5.9999931066
 TTTTTTTTTTTTTTTTTTTTTTTTTTTTTT NUMDFT      TELAPSE        6.62 TCPU        5.64
 CYC   0 ETOT(AU) -8.012739964147E+01 DETOT -8.01E+01 tst  0.00E+00 PX  1.00E+00
 TTTTTTTTTTTTTTTTTTTTTTTTTTTTTT DIIS        TELAPSE        6.62 TCPU        5.64
 TTTTTTTTTTTTTTTTTTTTTTTTTTTTTT FDIK        TELAPSE        6.64 TCPU        5.65

    ALPHA      ELECTRONS
 INSULATING STATE
 TOP OF VALENCE BANDS -    BAND      6; K   37; EIG -2.9875875E-01 AU
 TOP OF VALENCE BANDS -    BAND      6; K    1; EIG -3.5908735E-01 AU
 BOTTOM OF VIRTUAL BANDS - BAND      7; K   37; EIG -4.6528805E-02 AU
 DIRECT ENERGY BAND GAP:   6.8635 eV
 BOTTOM OF VIRTUAL BANDS - BAND      7; K    1; EIG  1.1530020E-01 AU

    BETA       ELECTRONS
 INSULATING STATE
 TOP OF VALENCE BANDS -    BAND      6; K   37; EIG -2.9875875E-01 AU
 TOP OF VALENCE BANDS -    BAND      6; K    1; EIG -3.5908735E-01 AU
 BOTTOM OF VIRTUAL BANDS - BAND      7; K   37; EIG -4.6528805E-02 AU
 DIRECT ENERGY BAND GAP:   6.8635 eV
 BOTTOM OF VIRTUAL BANDS - BAND      7; K    1; EIG  1.1530020E-01 AU
 TTTTTTTTTTTTTTTTTTTTTTTTTTTTTT PDIG        TELAPSE        6.71 TCPU        5.72
 CHARGE NORMALIZATION FACTOR   1.00000000
 TOTAL ATOMIC CHARGES:
   3.6982915   8.3017085
 SUMMED SPIN DENSITY          -0.00000000
 TOTAL ATOMIC SPINS  :
  -0.0000000   0.0000000
 TTTTTTTTTTTTTTTTTTTTTTTTTTTTTT MOQGAD      TELAPSE        6.71 TCPU        5.72
 TTTTTTTTTTTTTTTTTTTTTTTTTTTTTT SHELLXN     TELAPSE        7.59 TCPU        6.60
 TTTTTTTTTTTTTTTTTTTTTTTTTTTTTT MONMO3      TELAPSE       11.44 TCPU       10.44
 NUMERICALLY INTEGRATED DENSITY      5.9999887777      5.9999887777
 TTTTTTTTTTTTTTTTTTTTTTTTTTTTTT NUMDFT      TELAPSE       11.62 TCPU       10.62
 CYC   1 ETOT(AU) -7.963347776998E+01 DETOT  4.94E-01 tst  0.00E+00 PX  1.00E+00
 TTTTTTTTTTTTTTTTTTTTTTTTTTTTTT DIIS        TELAPSE       11.62 TCPU       10.62
 DIIS TEST: 0.55058E+00 AT SCF   CYCLE   1 - MIX   30 %
 TTTTTTTTTTTTTTTTTTTTTTTTTTTTTT FDIK        TELAPSE       11.63 TCPU       10.63

    ALPHA      ELECTRONS
 INSULATING STATE
 TOP OF VALENCE BANDS -    BAND      6; K   37; EIG -1.9237247E-01 AU
 TOP OF VALENCE BANDS -    BAND      6; K    1; EIG -2.5274299E-01 AU
 BOTTOM OF VIRTUAL BANDS - BAND      7; K   37; EIG -3.8126728E-03 AU
 DIRECT ENERGY BAND GAP:   5.1310 eV
 BOTTOM OF VIRTUAL BANDS - BAND      7; K    1; EIG  2.0539292E-01 AU

    BETA       ELECTRONS
 INSULATING STATE
 TOP OF VALENCE BANDS -    BAND      6; K   37; EIG -1.9237247E-01 AU
 TOP OF VALENCE BANDS -    BAND      6; K    1; EIG -2.5274299E-01 AU
 BOTTOM OF VIRTUAL BANDS - BAND      7; K   37; EIG -3.8126728E-03 AU
 DIRECT ENERGY BAND GAP:   5.1310 eV
 BOTTOM OF VIRTUAL BANDS - BAND      7; K    1; EIG  2.0539292E-01 AU
 TTTTTTTTTTTTTTTTTTTTTTTTTTTTTT PDIG        TELAPSE       11.64 TCPU       10.64
 CHARGE NORMALIZATION FACTOR   1.00000000
 TOTAL ATOMIC CHARGES:
   4.0198723   7.9801277
 SUMMED SPIN DENSITY          -0.00000000
 TOTAL ATOMIC SPINS  :
  -0.0000000   0.0000000
 TTTTTTTTTTTTTTTTTTTTTTTTTTTTTT MOQGAD      TELAPSE       11.64 TCPU       10.64
 TTTTTTTTTTTTTTTTTTTTTTTTTTTTTT SHELLXN     TELAPSE       12.53 TCPU       11.52
 TTTTTTTTTTTTTTTTTTTTTTTTTTTTTT MONMO3      TELAPSE       16.38 TCPU       15.36
 NUMERICALLY INTEGRATED DENSITY      5.9999819530      5.9999819530
 TTTTTTTTTTTTTTTTTTTTTTTTTTTTTT NUMDFT      TELAPSE       16.55 TCPU       15.53
 CYC   2 ETOT(AU) -7.965035812285E+01 DETOT -1.69E-02 tst  4.74E-03 PX  8.95E-02
 TTTTTTTTTTTTTTTTTTTTTTTTTTTTTT DIIS        TELAPSE       16.55 TCPU       15.53
 DIIS TEST: 0.19057E+00 AT SCF   CYCLE   2 - DIIS ACTIVE - HISTORY:     2 CYCLES
 TTTTTTTTTTTTTTTTTTTTTTTTTTTTTT FDIK        TELAPSE       16.57 TCPU       15.54

    ALPHA      ELECTRONS
 INSULATING STATE
 TOP OF VALENCE BANDS -    BAND      6; K   37; EIG -2.3200277E-01 AU
 TOP OF VALENCE BANDS -    BAND      6; K    1; EIG -2.9242726E-01 AU
 BOTTOM OF VIRTUAL BANDS - BAND      7; K   37; EIG -3.5984540E-03 AU
 DIRECT ENERGY BAND GAP:   6.2152 eV
 BOTTOM OF VIRTUAL BANDS - BAND      7; K    1; EIG  1.9292662E-01 AU

    BETA       ELECTRONS
 INSULATING STATE
 TOP OF VALENCE BANDS -    BAND      6; K   37; EIG -2.3200277E-01 AU
 TOP OF VALENCE BANDS -    BAND      6; K    1; EIG -2.9242726E-01 AU
 BOTTOM OF VIRTUAL BANDS - BAND      7; K   37; EIG -3.5984540E-03 AU
 DIRECT ENERGY BAND GAP:   6.2152 eV
 BOTTOM OF VIRTUAL BANDS - BAND      7; K    1; EIG  1.9292662E-01 AU
 TTTTTTTTTTTTTTTTTTTTTTTTTTTTTT PDIG        TELAPSE       16.58 TCPU       15.55
 CHARGE NORMALIZATION FACTOR   1.00000000
 TOTAL ATOMIC CHARGES:
   3.8513168   8.1486832
 SUMMED SPIN DENSITY          -0.00000000
 TOTAL ATOMIC SPINS  :
  -0.0000000   0.0000000
 TTTTTTTTTTTTTTTTTTTTTTTTTTTTTT MOQGAD      TELAPSE       16.58 TCPU       15.55
 TTTTTTTTTTTTTTTTTTTTTTTTTTTTTT SHELLXN     TELAPSE       17.48 TCPU       16.44
 TTTTTTTTTTTTTTTTTTTTTTTTTTTTTT MONMO3      TELAPSE       21.30 TCPU       20.26
 NUMERICALLY INTEGRATED DENSITY      5.9999833052      5.9999833052
 TTTTTTTTTTTTTTTTTTTTTTTTTTTTTT NUMDFT      TELAPSE       21.46 TCPU       20.41
 CYC   3 ETOT(AU) -7.965952672119E+01 DETOT -9.17E-03 tst  6.71E-04 PX  2.96E-02
 TTTTTTTTTTTTTTTTTTTTTTTTTTTTTT DIIS        TELAPSE       21.46 TCPU       20.41
 DIIS TEST: 0.24978E-03 AT SCF   CYCLE   3 - DIIS ACTIVE - HISTORY:     3 CYCLES
 TTTTTTTTTTTTTTTTTTTTTTTTTTTTTT FDIK        TELAPSE       21.47 TCPU       20.42

    ALPHA      ELECTRONS
 INSULATING STATE
 TOP OF VALENCE BANDS -    BAND      6; K   37; EIG -2.3562642E-01 AU
 TOP OF VALENCE BANDS -    BAND      6; K    1; EIG -2.9780052E-01 AU
 BOTTOM OF VIRTUAL BANDS - BAND      7; K   37; EIG -7.8860008E-03 AU
 DIRECT ENERGY BAND GAP:   6.1971 eV
 BOTTOM OF VIRTUAL BANDS - BAND      7; K    1; EIG  1.8968844E-01 AU

    BETA       ELECTRONS
 INSULATING STATE
 TOP OF VALENCE BANDS -    BAND      6; K   37; EIG -2.3562642E-01 AU
 TOP OF VALENCE BANDS -    BAND      6; K    1; EIG -2.9780052E-01 AU
 BOTTOM OF VIRTUAL BANDS - BAND      7; K   37; EIG -7.8860008E-03 AU
 DIRECT ENERGY BAND GAP:   6.1971 eV
 BOTTOM OF VIRTUAL BANDS - BAND      7; K    1; EIG  1.8968844E-01 AU
 TTTTTTTTTTTTTTTTTTTTTTTTTTTTTT PDIG        TELAPSE       21.48 TCPU       20.43
 CHARGE NORMALIZATION FACTOR   1.00000000
 TOTAL ATOMIC CHARGES:
   3.8582903   8.1417097
 SUMMED SPIN DENSITY          -0.00000000
 TOTAL ATOMIC SPINS  :
   0.0000000  -0.0000000
 TTTTTTTTTTTTTTTTTTTTTTTTTTTTTT MOQGAD      TELAPSE       21.48 TCPU       20.43
 TTTTTTTTTTTTTTTTTTTTTTTTTTTTTT SHELLXN     TELAPSE       22.38 TCPU       21.32
 TTTTTTTTTTTTTTTTTTTTTTTTTTTTTT MONMO3      TELAPSE       26.21 TCPU       25.14
 NUMERICALLY INTEGRATED DENSITY      5.9999833408      5.9999833408
 TTTTTTTTTTTTTTTTTTTTTTTTTTTTTT NUMDFT      TELAPSE       26.37 TCPU       25.30
 CYC   4 ETOT(AU) -7.965953915501E+01 DETOT -1.24E-05 tst  1.15E-06 PX  1.61E-03
 TTTTTTTTTTTTTTTTTTTTTTTTTTTTTT DIIS        TELAPSE       26.38 TCPU       25.31
 DIIS TEST: 0.16246E-04 AT SCF   CYCLE   4 - DIIS ACTIVE - HISTORY:     4 CYCLES
 TTTTTTTTTTTTTTTTTTTTTTTTTTTTTT FDIK        TELAPSE       26.39 TCPU       25.31

    ALPHA      ELECTRONS
 INSULATING STATE
 TOP OF VALENCE BANDS -    BAND      6; K   37; EIG -2.3494570E-01 AU
 TOP OF VALENCE BANDS -    BAND      6; K    1; EIG -2.9694068E-01 AU
 BOTTOM OF VIRTUAL BANDS - BAND      7; K   37; EIG -7.2732816E-03 AU
 DIRECT ENERGY BAND GAP:   6.1953 eV
 BOTTOM OF VIRTUAL BANDS - BAND      7; K    1; EIG  1.9033466E-01 AU

    BETA       ELECTRONS
 INSULATING STATE
 TOP OF VALENCE BANDS -    BAND      6; K   37; EIG -2.3494570E-01 AU
 TOP OF VALENCE BANDS -    BAND      6; K    1; EIG -2.9694068E-01 AU
 BOTTOM OF VIRTUAL BANDS - BAND      7; K   37; EIG -7.2732816E-03 AU
 DIRECT ENERGY BAND GAP:   6.1953 eV
 BOTTOM OF VIRTUAL BANDS - BAND      7; K    1; EIG  1.9033466E-01 AU
 TTTTTTTTTTTTTTTTTTTTTTTTTTTTTT PDIG        TELAPSE       26.39 TCPU       25.32
 CHARGE NORMALIZATION FACTOR   1.00000000
 TOTAL ATOMIC CHARGES:
   3.8583189   8.1416811
 SUMMED SPIN DENSITY           0.00000000
 TOTAL ATOMIC SPINS  :
  -0.0000000   0.0000000
 TTTTTTTTTTTTTTTTTTTTTTTTTTTTTT MOQGAD      TELAPSE       26.40 TCPU       25.32
 TTTTTTTTTTTTTTTTTTTTTTTTTTTTTT SHELLXN     TELAPSE       27.29 TCPU       26.21
 TTTTTTTTTTTTTTTTTTTTTTTTTTTTTT MONMO3      TELAPSE       31.06 TCPU       29.98
 NUMERICALLY INTEGRATED DENSITY      5.9999832878      5.9999832878
 TTTTTTTTTTTTTTTTTTTTTTTTTTTTTT NUMDFT      TELAPSE       31.22 TCPU       30.13
 CYC   5 ETOT(AU) -7.965954011769E+01 DETOT -9.63E-07 tst  9.72E-08 PX  5.89E-04
 TTTTTTTTTTTTTTTTTTTTTTTTTTTTTT DIIS        TELAPSE       31.23 TCPU       30.14
 DIIS TEST: 0.45699E-07 AT SCF   CYCLE   5 - DIIS ACTIVE - HISTORY:     5 CYCLES
 TTTTTTTTTTTTTTTTTTTTTTTTTTTTTT FDIK        TELAPSE       31.24 TCPU       30.14

    ALPHA      ELECTRONS
 INSULATING STATE
 TOP OF VALENCE BANDS -    BAND      6; K   37; EIG -2.3496003E-01 AU
 TOP OF VALENCE BANDS -    BAND      6; K    1; EIG -2.9696290E-01 AU
 BOTTOM OF VIRTUAL BANDS - BAND      7; K   37; EIG -7.2892109E-03 AU
 DIRECT ENERGY BAND GAP:   6.1952 eV
 BOTTOM OF VIRTUAL BANDS - BAND      7; K    1; EIG  1.9032343E-01 AU

    BETA       ELECTRONS
 INSULATING STATE
 TOP OF VALENCE BANDS -    BAND      6; K   37; EIG -2.3496003E-01 AU
 TOP OF VALENCE BANDS -    BAND      6; K    1; EIG -2.9696290E-01 AU
 BOTTOM OF VIRTUAL BANDS - BAND      7; K   37; EIG -7.2892109E-03 AU
 DIRECT ENERGY BAND GAP:   6.1952 eV
 BOTTOM OF VIRTUAL BANDS - BAND      7; K    1; EIG  1.9032343E-01 AU
 TTTTTTTTTTTTTTTTTTTTTTTTTTTTTT PDIG        TELAPSE       31.24 TCPU       30.15
 CHARGE NORMALIZATION FACTOR   1.00000000
 TOTAL ATOMIC CHARGES:
   3.8583725   8.1416275
 SUMMED SPIN DENSITY          -0.00000000
 TOTAL ATOMIC SPINS  :
  -0.0000000   0.0000000
 TTTTTTTTTTTTTTTTTTTTTTTTTTTTTT MOQGAD      TELAPSE       31.25 TCPU       30.15
 TTTTTTTTTTTTTTTTTTTTTTTTTTTTTT SHELLXN     TELAPSE       32.14 TCPU       31.04
 TTTTTTTTTTTTTTTTTTTTTTTTTTTTTT MONMO3      TELAPSE       35.95 TCPU       34.84
 NUMERICALLY INTEGRATED DENSITY      5.9999832866      5.9999832866
 TTTTTTTTTTTTTTTTTTTTTTTTTTTTTT NUMDFT      TELAPSE       36.10 TCPU       34.99
 CYC   6 ETOT(AU) -7.965954012197E+01 DETOT -4.28E-09 tst  1.85E-10 PX  1.96E-05
 TTTTTTTTTTTTTTTTTTTTTTTTTTTTTT DIIS        TELAPSE       36.11 TCPU       35.00
 DIIS TEST: 0.25288E-09 AT SCF   CYCLE   6 - DIIS ACTIVE - HISTORY:     6 CYCLES
 TTTTTTTTTTTTTTTTTTTTTTTTTTTTTT FDIK        TELAPSE       36.12 TCPU       35.00

    ALPHA      ELECTRONS
 INSULATING STATE
 TOP OF VALENCE BANDS -    BAND      6; K   37; EIG -2.3495855E-01 AU
 TOP OF VALENCE BANDS -    BAND      6; K    1; EIG -2.9696048E-01 AU
 BOTTOM OF VIRTUAL BANDS - BAND      7; K   37; EIG -7.2871537E-03 AU
 DIRECT ENERGY BAND GAP:   6.1953 eV
 BOTTOM OF VIRTUAL BANDS - BAND      7; K    1; EIG  1.9032542E-01 AU

    BETA       ELECTRONS
 INSULATING STATE
 TOP OF VALENCE BANDS -    BAND      6; K   37; EIG -2.3495855E-01 AU
 TOP OF VALENCE BANDS -    BAND      6; K    1; EIG -2.9696048E-01 AU
 BOTTOM OF VIRTUAL BANDS - BAND      7; K   37; EIG -7.2871537E-03 AU
 DIRECT ENERGY BAND GAP:   6.1953 eV
 BOTTOM OF VIRTUAL BANDS - BAND      7; K    1; EIG  1.9032542E-01 AU
 TTTTTTTTTTTTTTTTTTTTTTTTTTTTTT PDIG        TELAPSE       36.13 TCPU       35.01
 CHARGE NORMALIZATION FACTOR   1.00000000
 TOTAL ATOMIC CHARGES:
   3.8583751   8.1416249
 SUMMED SPIN DENSITY          -0.00000000
 TOTAL ATOMIC SPINS  :
  -0.0000000   0.0000000
 TTTTTTTTTTTTTTTTTTTTTTTTTTTTTT MOQGAD      TELAPSE       36.13 TCPU       35.01
 TTTTTTTTTTTTTTTTTTTTTTTTTTTTTT SHELLXN     TELAPSE       37.03 TCPU       35.91

 ::: DIPOLE MOMENT ALONG NON PERIODIC DIRECTIONS:
 ::: A.U.     (Z)  0.00000E+00
 ::: DEBYE         0.00000E+00

 +++ ENERGIES IN A.U. +++
 ::: EXT EL-POLE                                  -1.9034513095351E+02
 ::: EXT EL-SPHEROPOLE                             0.0000000000000E+00
 ::: BIELET ZONE E-E                               1.8173194901543E+02
 ::: TOTAL E-E                                    -8.6131819380820E+00
 ::: TOTAL E-N + N-E                              -9.7594572553427E+01
 ::: TOTAL N-N                                    -4.4204530793969E+01
 ::: KINETIC ENERGY                                7.9285589694434E+01
 ::: PSEUDO TOTAL   ENERGY                        -7.1126695591044E+01
 ::: VIRIAL COEFFICIENT                            1.0542435352797E+00
 TTTTTTTTTTTTTTTTTTTTTTTTTTTTTT MONMO3      TELAPSE       40.81 TCPU       39.68
 NUMERICALLY INTEGRATED DENSITY      5.9999832864      5.9999832864
 TTTTTTTTTTTTTTTTTTTTTTTTTTTTTT NUMDFT      TELAPSE       40.98 TCPU       39.85
 CYC   7 ETOT(AU) -7.965954012222E+01 DETOT -2.52E-10 tst  1.11E-12 PX  1.96E-05

 == SCF ENDED - CONVERGENCE ON ENERGY      E(AU) -7.9659540122223E+01 CYCLES   7


 ENERGY EXPRESSION=HARTREE+FOCK EXCH*0.00000+(HSE06      EXCH)*1.00000+PBE        CORR


 TOTAL ENERGY(DFT)(AU)(  7) -7.9659540122223E+01 DE-2.5E-10 tester 1.1E-12
 TTTTTTTTTTTTTTTTTTTTTTTTTTTTTT EDFT        TELAPSE       40.98 TCPU       39.85

 *******************************************************************************
 *                             FORCE CALCULATION                               *
 *******************************************************************************

 TTTTTTTTTTTTTTTTTTTTTTTTTTTTTT NUMDFG      TELAPSE       41.51 TCPU       40.38
 INFORMATION **** GENPOG **** BIPO BUFFER LENGTH (WORDS) =      186900
 TTTTTTTTTTTTTTTTTTTTTTTTTTTTTT SHELXG      TELAPSE       48.16 TCPU       47.01


 D3 DISPERSION ENERGY (AU)       -4.6676992976905E-03
 TOTAL ENERGY + DISP (AU)        -7.9664207821520E+01

 CARTESIAN FORCES IN HARTREE/BOHR (ANALYTICAL)
   ATOM                     X                   Y                   Z
   1   5             9.868651111869E-15  2.428287829850E-15 -1.156482317318E-18
   2   7            -9.868651111869E-15 -2.428287829850E-15  1.156482317318E-18

 RESULTANT FORCE     0.000000000000E+00  0.000000000000E+00  0.000000000000E+00

 ATOMIC PART

 THERE ARE NO SYMMETRY ALLOWED DIRECTIONS

 CELL PART

 GRADIENT WITH RESPECT TO THE CELL PARAMETER IN HARTREE/BOHR
 ORDER: -D/DA1X, -D/DA1Y
       -D/DA2X, -D/DA2Y

 -0.715204961032E-02 -0.412923776778E-02
 -0.634427670430E-14 -0.825847553554E-02

 SYMMETRY ALLOWED FORCES (ANALYTICAL) (DIRECTION, FORCE)

    1 -4.8021757E-02
 TTTTTTTTTTTTTTTTTTTTTTTTTTTTTT TOTGRA_C    TELAPSE       75.19 TCPU       73.97
 INFORMATION **** optc001 **** GEOMETRY OUTPUT FILE
 CLASSICAL MODEL (SCHLEGEL) USED AS INITIAL HESSIAN MATRIX
 REFERENCE GEOMETRY DEFINED

 MAX GRADIENT      0.048022  THRESHOLD              0.000450 CONVERGED NO
 RMS GRADIENT      0.048022  THRESHOLD              0.000300 CONVERGED NO

 GRADIENT NORM     0.048022  GRADIENT THRESHOLD     0.500000

 EIGENVALUES OF THE ESTIMATED HESSIAN
   3.489    

 INITIAL TRUST RADIUS    0.5000000000E+00

 PREDICTED ENERGY CHANGE    -0.330E-03

 INITIAL DISPLACEMENTS
 -0.013763
 TTTTTTTTTTTTTTTTTTTTTTTTTTTTTT OPTI        TELAPSE       75.20 TCPU       73.97

 OPTOPTOPTOPTOPTOPTOPTOPTOPTOPTOPTOPTOPTOPTOPTOPTOPTOPTOPTOPTOPTOPTOPTOPTOPTOPT

 - INFORMATION ON SCF MOVED TO SCFOUT.LOG
 GEOMETRY OPTIMIZATION INFORMATION STORED IN OPTINFO.DAT

 OPTOPTOPTOPTOPTOPTOPTOPTOPTOPTOPTOPTOPTOPTOPTOPTOPTOPTOPTOPTOPTOPTOPTOPTOPTOPT
 *******************************************************************************
 CELL OPTIMIZATION - POINT    2
 *******************************************************************************
 LATTICE PARAMETERS (ANGSTROMS AND DEGREES) - BOHR = 0.5291772083 ANGSTROM
 PRIMITIVE CELL
         A              B              C           ALPHA      BETA       GAMMA 
     2.48797701     2.48797701   500.00000000    90.000000  90.000000 120.000000
 *******************************************************************************
 ATOMS IN THE ASYMMETRIC UNIT    2 - ATOMS IN THE UNIT CELL:    2
     ATOM                 X/A                 Y/B             Z(ANGSTROM)
 *******************************************************************************
      1 T   5 B    -3.333333333333E-01  3.333333333333E-01  0.000000000000E+00
      2 T   7 N     3.333333333333E-01 -3.333333333333E-01  0.000000000000E+00

 T = ATOM BELONGING TO THE ASYMMETRIC UNIT

 TOTAL ENERGY(DFT)(AU)(  6) -7.9664432309481E+01     DE (AU)   -2.245E-04

 UPDATED TRUST RADIUS     0.500E+00

 SYMMETRY ALLOWED FORCES  (COORDINATE, FORCE)

    1  1.6245643E-02

 GRADIENT NORM     0.016246  GRADIENT THRESHOLD     0.500000

 EIGENVALUES OF THE ESTIMATED HESSIAN
   4.669    

 PREDICTED ENERGY CHANGE    -0.283E-04

 MAX GRADIENT      0.016246  THRESHOLD              0.000450 CONVERGED NO
 RMS GRADIENT      0.016246  THRESHOLD              0.000300 CONVERGED NO
 MAX DISPLAC.      0.003479  THRESHOLD              0.001800 CONVERGED NO
 RMS DISPLAC.      0.003479  THRESHOLD              0.001200 CONVERGED NO
 TTTTTTTTTTTTTTTTTTTTTTTTTTTTTT OPTI        TELAPSE      144.37 TCPU      142.93
 *******************************************************************************
 CELL OPTIMIZATION - POINT    3
 *******************************************************************************
 LATTICE PARAMETERS (ANGSTROMS AND DEGREES) - BOHR = 0.5291772083 ANGSTROM
 PRIMITIVE CELL
         A              B              C           ALPHA      BETA       GAMMA 
     2.49409768     2.49409768   500.00000000    90.000000  90.000000 120.000000
 *******************************************************************************
 ATOMS IN THE ASYMMETRIC UNIT    2 - ATOMS IN THE UNIT CELL:    2
     ATOM                 X/A                 Y/B             Z(ANGSTROM)
 *******************************************************************************
      1 T   5 B    -3.333333333333E-01  3.333333333333E-01  0.000000000000E+00
      2 T   7 N     3.333333333333E-01 -3.333333333333E-01  0.000000000000E+00

 T = ATOM BELONGING TO THE ASYMMETRIC UNIT

 TOTAL ENERGY(DFT)(AU)(  6) -7.9664459812544E+01     DE (AU)   -2.750E-05

 UPDATED TRUST RADIUS     0.100E+01

 SYMMETRY ALLOWED FORCES  (COORDINATE, FORCE)

    1 -1.7683081E-04

 GRADIENT NORM     0.000177  GRADIENT THRESHOLD     0.500000

 EIGENVALUES OF THE ESTIMATED HESSIAN
   4.720    

 PREDICTED ENERGY CHANGE    -0.331E-08

 MAX GRADIENT      0.000177  THRESHOLD              0.000450 CONVERGED YES
 RMS GRADIENT      0.000177  THRESHOLD              0.000300 CONVERGED YES
 MAX DISPLAC.      0.000037  THRESHOLD              0.001800 CONVERGED YES
 RMS DISPLAC.      0.000037  THRESHOLD              0.001200 CONVERGED YES

 CONVERGENCE TESTS SATISFIED AFTER   3 ENERGY AND GRADIENT CALCULATIONS
 +++++++++++++++++++++++++++++++++++++++++++++++++++++++++++++++++++++++++++++++
 FINALRUN OPTION: RE-STARTING OPTIMIZATION
 +++++++++++++++++++++++++++++++++++++++++++++++++++++++++++++++++++++++++++++++
 TTTTTTTTTTTTTTTTTTTTTTTTTTTTTT OPTI        TELAPSE      213.43 TCPU      211.76
 *******************************************************************************
 CELL OPTIMIZATION - POINT    4
 *******************************************************************************
 LATTICE PARAMETERS (ANGSTROMS AND DEGREES) - BOHR = 0.5291772083 ANGSTROM
 PRIMITIVE CELL
         A              B              C           ALPHA      BETA       GAMMA 
     2.49403162     2.49403162   500.00000000    90.000000  90.000000 120.000000
 *******************************************************************************
 ATOMS IN THE ASYMMETRIC UNIT    2 - ATOMS IN THE UNIT CELL:    2
     ATOM                 X/A                 Y/B             Z(ANGSTROM)
 *******************************************************************************
      1 T   5 B    -3.333333333333E-01  3.333333333333E-01  0.000000000000E+00
      2 T   7 N     3.333333333333E-01 -3.333333333333E-01  0.000000000000E+00

 T = ATOM BELONGING TO THE ASYMMETRIC UNIT

 REFERENCE GEOMETRY WILL BE CHANGED

 TOTAL ENERGY(DFT)(AU)(  3) -7.9664450313696E+01     DE (AU)    9.499E-06

 SYMMETRY ALLOWED FORCES  (COORDINATE, FORCE)

    1  7.3648798E-05

 GRADIENT NORM     0.000074  GRADIENT THRESHOLD     0.500000

 HESSIAN UPDATE SKIPPED

 EIGENVALUES OF THE ESTIMATED HESSIAN
   4.720    

 PREDICTED ENERGY CHANGE    -0.575E-09

 MAX GRADIENT      0.000074  THRESHOLD              0.000450 CONVERGED YES
 RMS GRADIENT      0.000074  THRESHOLD              0.000300 CONVERGED YES
 MAX DISPLAC.      0.000016  THRESHOLD              0.001800 CONVERGED YES
 RMS DISPLAC.      0.000016  THRESHOLD              0.001200 CONVERGED YES

 CONVERGENCE TESTS SATISFIED AFTER   4 ENERGY AND GRADIENT CALCULATIONS

 ******************************************************************
 * OPT END - CONVERGED * E(AU):  -7.966445031370E+01  POINTS    4 *
 ******************************************************************

 ENERGY CONTRIBUTIONS OF SEMICLASSICAL CORRECTIONS
  D3 DISPERSION ENERGY (AU)      -4.739490659413E-03
 
   ALPHA BAND GAP:                6.2569  eV 
   BETA BAND GAP:                 6.2569  eV 


 NEIGHBORS OF THE NON-EQUIVALENT ATOMS

 N = NUMBER OF NEIGHBORS AT DISTANCE R
    ATOM  N     R/ANG      R/AU   NEIGHBORS (ATOM LABELS AND CELL INDICES)
   1 B    3     1.4399     2.7211    2 N   -1 0 0    2 N    0 1 0    2 N   -1 1 0
   1 B    6     2.4940     4.7130    1 B   -1-1 0    1 B    1 1 0    1 B   -1 0 0
                                     1 B    1 0 0    1 B    0-1 0    1 B    0 1 0
   1 B    3     2.8799     5.4421    2 N    0 0 0    2 N   -2 0 0    2 N    0 2 0
   1 B    6     3.8097     7.1993    2 N    1 1 0    2 N   -1-1 0    2 N   -2-1 0
                                     2 N    1 2 0    2 N   -2 1 0    2 N   -1 2 0
   1 B    6     4.3198     8.1632    1 B   -2-1 0    1 B    2 1 0    1 B   -1-2 0
                                     1 B    1 2 0    1 B   -1 1 0    1 B    1-1 0
   1 B    6     4.9881     9.4261    1 B   -2-2 0    1 B    2 2 0    1 B   -2 0 0
                                     1 B    2 0 0    1 B    0-2 0    1 B    0 2 0

   2 N    3     1.4399     2.7211    1 B    1 0 0    1 B    0-1 0    1 B    1-1 0
   2 N    6     2.4940     4.7130    2 N   -1-1 0    2 N    1 1 0    2 N   -1 0 0
                                     2 N    1 0 0    2 N    0-1 0    2 N    0 1 0
   2 N    3     2.8799     5.4421    1 B    0 0 0    1 B    2 0 0    1 B    0-2 0
   2 N    6     3.8097     7.1993    1 B   -1-1 0    1 B    1 1 0    1 B    2 1 0
                                     1 B   -1-2 0    1 B    2-1 0    1 B    1-2 0
   2 N    6     4.3198     8.1632    2 N   -2-1 0    2 N    2 1 0    2 N   -1-2 0
                                     2 N    1 2 0    2 N   -1 1 0    2 N    1-1 0
   2 N    6     4.9881     9.4261    2 N   -2-2 0    2 N    2 2 0    2 N   -2 0 0
                                     2 N    2 0 0    2 N    0-2 0    2 N    0 2 0

 TTTTTTTTTTTTTTTTTTTTTTTTTTTTTT AFTER FIRST TELAPSE      269.27 TCPU      267.42
 MMMMMMMMMMMMMMMMMMMMMMMMMMMMMMMMMMMMMMMMMMMMMMMMMMMMMMMMMMMMMMMMMMMMMMMMMMMMMMM
     ALPHA+BETA ELECTRONS
 MULLIKEN POPULATION ANALYSIS - NO. OF ELECTRONS   12.000000

  ATOM    Z CHARGE  A.O. POPULATION

   1 B    5  3.847  0.914  1.053  0.213  0.376  0.437  0.437  0.199 -0.016
                   -0.016 -0.013  0.021  0.021  0.144  0.005  0.011  0.011
                    0.026  0.026
   2 N    7  8.153  0.817  1.156  0.654  0.900  0.540  0.540  0.524  0.699
                    0.699  0.672  0.213  0.213  0.438  0.005  0.007  0.007
                    0.035  0.035

  ATOM    Z CHARGE  SHELL POPULATION

   1 B    5  3.847  0.914  1.053  0.213  0.376  1.073 -0.046  0.185  0.078
   2 N    7  8.153  0.817  1.156  0.654  0.900  1.605  2.069  0.863  0.088

 OVERLAP POPULATION CONDENSED TO ATOMS FOR FIRST   6 NEIGHBORS

 ATOM A   1 B    ATOM B     CELL      R(AB)/AU R(AB)/ANG    OVPOP(AB)
                  2 N    ( -1  0  0)     2.721     1.440     0.369
                  1 B    ( -1 -1  0)     4.713     2.494     0.001
                  2 N    (  0  0  0)     5.442     2.880    -0.010
                  2 N    (  1  1  0)     7.199     3.810     0.001
                  1 B    ( -2 -1  0)     8.163     4.320    -0.000
                  1 B    ( -2 -2  0)     9.426     4.988     0.000

 ATOM A   2 N    ATOM B     CELL      R(AB)/AU R(AB)/ANG    OVPOP(AB)
                  1 B    (  1  0  0)     2.721     1.440     0.369
                  2 N    ( -1 -1  0)     4.713     2.494    -0.041
                  1 B    (  0  0  0)     5.442     2.880    -0.010
                  1 B    ( -1 -1  0)     7.199     3.810     0.001
                  2 N    ( -2 -1  0)     8.163     4.320    -0.001
                  2 N    ( -2 -2  0)     9.426     4.988     0.000
 TTTTTTTTTTTTTTTTTTTTTTTTTTTTTT AFTER FIRST TELAPSE      269.34 TCPU      267.44
 MMMMMMMMMMMMMMMMMMMMMMMMMMMMMMMMMMMMMMMMMMMMMMMMMMMMMMMMMMMMMMMMMMMMMMMMMMMMMMM
     ALPHA-BETA ELECTRONS
 MULLIKEN POPULATION ANALYSIS - NO. OF ELECTRONS   -0.000000

  ATOM    Z CHARGE  A.O. POPULATION

   1 B    5  0.000 -0.000 -0.000 -0.000  0.000  0.000  0.000  0.000 -0.000
                   -0.000 -0.000  0.000  0.000  0.000  0.000  0.000  0.000
                   -0.000 -0.000
   2 N    7 -0.000  0.000 -0.000 -0.000 -0.000  0.000  0.000 -0.000 -0.000
                   -0.000 -0.000 -0.000 -0.000 -0.000  0.000 -0.000 -0.000
                   -0.000 -0.000

  ATOM    Z CHARGE  SHELL POPULATION

   1 B    5  0.000 -0.000 -0.000 -0.000  0.000  0.000 -0.000  0.000 -0.000
   2 N    7 -0.000  0.000 -0.000 -0.000 -0.000  0.000 -0.000 -0.000 -0.000

 OVERLAP POPULATION CONDENSED TO ATOMS FOR FIRST   6 NEIGHBORS

 ATOM A   1 B    ATOM B     CELL      R(AB)/AU R(AB)/ANG    OVPOP(AB)
                  2 N    ( -1  0  0)     2.721     1.440     0.000
                  1 B    ( -1 -1  0)     4.713     2.494    -0.000
                  2 N    (  0  0  0)     5.442     2.880    -0.000
                  2 N    (  1  1  0)     7.199     3.810     0.000
                  1 B    ( -2 -1  0)     8.163     4.320    -0.000
                  1 B    ( -2 -2  0)     9.426     4.988     0.000

 ATOM A   2 N    ATOM B     CELL      R(AB)/AU R(AB)/ANG    OVPOP(AB)
                  1 B    (  1  0  0)     2.721     1.440     0.000
                  2 N    ( -1 -1  0)     4.713     2.494     0.000
                  1 B    (  0  0  0)     5.442     2.880    -0.000
                  1 B    ( -1 -1  0)     7.199     3.810     0.000
                  2 N    ( -2 -1  0)     8.163     4.320     0.000
                  2 N    ( -2 -2  0)     9.426     4.988    -0.000
 EIGENVECTORS IN FORTRAN UNIT  8

 FINAL OPTIMIZED GEOMETRY - DIMENSIONALITY OF THE SYSTEM      2
 (NON PERIODIC DIRECTION: LATTICE PARAMETER FORMALLY SET TO 500)
 *******************************************************************************
 LATTICE PARAMETERS (ANGSTROMS AND DEGREES) - BOHR = 0.5291772083 ANGSTROM
 PRIMITIVE CELL
         A              B              C           ALPHA      BETA       GAMMA 
     2.49403162     2.49403162   500.00000000    90.000000  90.000000 120.000000
 *******************************************************************************
 ATOMS IN THE ASYMMETRIC UNIT    2 - ATOMS IN THE UNIT CELL:    2
     ATOM                 X/A                 Y/B             Z(ANGSTROM)
 *******************************************************************************
      1 T   5 B    -3.333333333333E-01  3.333333333333E-01  0.000000000000E+00
      2 T   7 N     3.333333333333E-01 -3.333333333333E-01  0.000000000000E+00

 T = ATOM BELONGING TO THE ASYMMETRIC UNIT
 INFORMATION **** fort.34 **** GEOMETRY OUTPUT FILE

 DIRECT LATTICE VECTORS CARTESIAN COMPONENTS (ANGSTROM)
          X                    Y                    Z
   0.249403161580E+01   0.000000000000E+00   0.000000000000E+00
  -0.124701580790E+01   0.215989473712E+01   0.000000000000E+00
   0.000000000000E+00   0.000000000000E+00   0.500000000000E+03


 CARTESIAN COORDINATES - PRIMITIVE CELL
 *******************************************************************************
 *      ATOM          X(ANGSTROM)         Y(ANGSTROM)         Z(ANGSTROM)
 *******************************************************************************
    1     5 B    -1.247015807899E+00  7.199649123741E-01  0.000000000000E+00
    2     7 N     1.247015807899E+00 -7.199649123741E-01  0.000000000000E+00

 ****   12 SYMMOPS - TRANSLATORS IN FRACTIONAL UNITS
 **** MATRICES AND TRANSLATORS IN THE CRYSTALLOGRAPHIC REFERENCE FRAME
   V INV                    ROTATION MATRICES                   TRANSLATORS
   1   1  1.00  0.00  0.00  0.00  1.00  0.00  0.00  0.00  1.00  0.00  0.00  0.00
   2   3  0.00 -1.00  0.00  1.00 -1.00  0.00  0.00  0.00  1.00  0.00  0.00  0.00
   3   2 -1.00  1.00  0.00 -1.00  0.00  0.00  0.00  0.00  1.00  0.00  0.00  0.00
   4   4  0.00 -1.00  0.00 -1.00  0.00  0.00  0.00  0.00 -1.00  0.00  0.00  0.00
   5   5  1.00  0.00  0.00  1.00 -1.00  0.00  0.00  0.00 -1.00  0.00  0.00  0.00
   6   6 -1.00  1.00  0.00 -0.00  1.00  0.00  0.00  0.00 -1.00  0.00  0.00  0.00
   7   7  1.00  0.00  0.00 -0.00  1.00  0.00  0.00  0.00 -1.00  0.00  0.00  0.00
   8   9 -1.00  1.00  0.00 -1.00  0.00  0.00  0.00  0.00 -1.00  0.00  0.00  0.00
   9   8  0.00 -1.00  0.00  1.00 -1.00  0.00  0.00  0.00 -1.00  0.00  0.00  0.00
  10  10 -1.00  1.00  0.00 -0.00  1.00  0.00  0.00  0.00  1.00  0.00  0.00  0.00
  11  11  1.00  0.00  0.00  1.00 -1.00  0.00  0.00  0.00  1.00  0.00  0.00  0.00
  12  12  0.00 -1.00  0.00 -1.00  0.00  0.00  0.00  0.00  1.00  0.00  0.00  0.00
 TTTTTTTTTTTTTTTTTTTTTTTTTTTTTT END         TELAPSE      269.59 TCPU      267.54
 EEEEEEEEEE TERMINATION  DATE 27 01 2023 TIME 10:34:13.8
NODE    0 CPU TIME =       267.543
NODE    1 CPU TIME =       267.704
NODE    2 CPU TIME =       267.646
NODE    3 CPU TIME =       267.665
NODE    4 CPU TIME =       267.768
NODE    5 CPU TIME =       267.760
NODE    6 CPU TIME =       267.270
NODE    7 CPU TIME =       267.742
NODE    8 CPU TIME =       267.731
NODE    9 CPU TIME =       267.596
NODE   10 CPU TIME =       267.786
NODE   11 CPU TIME =       267.615
NODE   12 CPU TIME =       267.749
NODE   13 CPU TIME =       267.693
NODE   14 CPU TIME =       266.527
NODE   15 CPU TIME =       267.251
NODE   16 CPU TIME =       267.419
NODE   17 CPU TIME =       267.592
NODE   18 CPU TIME =       267.562
NODE   19 CPU TIME =       266.458
NODE   20 CPU TIME =       267.548
NODE   21 CPU TIME =       267.569
NODE   22 CPU TIME =       267.431
NODE   23 CPU TIME =       267.575
NODE   24 CPU TIME =       267.415
NODE   25 CPU TIME =       267.510
NODE   26 CPU TIME =       267.252
NODE   27 CPU TIME =       267.471
NODE   28 CPU TIME =       267.709
NODE   29 CPU TIME =       267.459
NODE   30 CPU TIME =       267.682
NODE   31 CPU TIME =       267.644
    TOTAL CPU TIME =      8560.339
