          64 PROCESSORS WORKING

         
 *******************************************************************************
 *                                                                             *
 *                               CRYSTAL17                                     *
 *                      public : 1.0.2 - March 1st, 2018                       *
 *                       HTTP://WWW.CRYSTAL.UNITO.IT                           *
 *                                                                             *
 *                              MAIN AUTHORS                                   *
 *                                                                             *
 *  R. DOVESI(1,11), V.R. SAUNDERS(2), C. ROETTI(1,11), R. ORLANDO(1,11),      *
 *  C.M. ZICOVICH-WILSON(1,3), F. PASCALE(4), B. CIVALLERI(1,11),              *
 *  K. DOLL(5), N.M. HARRISON(2,6), I.J. BUSH(7), Ph. D'ARCO(8),               *
 *  M. LLUNELL(9), M. CAUSA'(10), Y. NOEL(8), L. MASCHIO(1,11), A. ERBA(1,11)  *
 *  M. RE'RAT(14), S. CASASSA(1,11)                                            *
 *                                                                             *
 *        CONTRIBUTIONS TO THE CODE HAVE ALSO BEEN GIVEN BY                    *
 *                                                                             *
 *  M. FERRABONE(1,11), M. DE LA PIERRE(1,11), M. FERRERO(1,11),               *
 *  J. BAIMA(1,11), E. ALBANESE(1,11), M.F. PEINTINGER(12), R. BAST(13),       *
 *  B. KIRTMAN(15), V. LACIVITA(1,11), R. DEMICHELIS(1,16)                     *
 *  G. BRANDEBURG(17), S. SALUSTRO(1,11), G. SANSONE(1,11)                     *
 *  M.T. RUGGIERO(18)                                                          *
 *                                                                             *
 * (1) THEORETICAL CHEMISTRY GROUP - UNIVERSITA' DI TORINO - TORINO (ITALY)    *
 * (2) COMPUTATIONAL SCIENCE & ENGINEERING DEPARTMENT - STFC DARESBURY (UK)    *
 * (3) UNIVERSIDAD AUTONOMA DEL ESTADO DE MORELOS - CUERNAVACA (MEXICO)        *
 * (4) UNIVERSITE' DE LORRAINE - NANCY (FRANCE)                                *
 * (5) UNIVERSITAET STUTTGART- STUTTGART (GERMANY)                             *
 * (6) IMPERIAL COLLEGE - LONDON (UK)                                          *
 * (7) OXFORD E-RESEARCH CENTRE - OXFORD (UK)                                  *
 * (8) UPMC - SORBONNE UNIVERSITES - PARIS (FRANCE)                            *
 * (9) UNIVERSIDAD DE BARCELONA - BARCELONA (SPAIN)                            *
 *(10) UNIVERSITA' DI NAPOLI "FEDERICO II" - NAPOLI (ITALY)                    *
 *(11) NIS - NANOSTRUCTURED INTERFACES AND SURFACES - TORINO (ITALY)           *
 *(12) MPI FUER CHEMISCHE ENERGIEKONVERSION - MUELHEIM AN DER RUHR (GERMANY)   *
 *(13) UNIVERSITY OF TROMSO - TROMSO (NORWAY)                                  *
 *(14) UNIVERSITE' DE PAU ET DES PAYS DE L'ADOUR - PAU (FRANCE)                *
 *(15) UNIVERSITY OF CALIFORNIA SANTA BARBARA - SANTA BARBARA (USA)            *
 *(16) CURTIN UNIVERSITY - PERTH (AUSTRALIA)                                   *
 *(17) UNIVERSITY COLLEGE LONDON - LONDON (UK)                                 *
 *(18) CAMBRIDGE UNIVERSITY - CAMBRIDGE (UK)                                   *
 *                                                                             *
 *******************************************************************************
 EEEEEEEEEE STARTING  DATE 05 04 2023 TIME 21:07:35.1
 hBN_slab_6x6_v_N_v_B_Pt                                                         

 SLAB CALCULATION
 SYSTEM AND LATTICE                   :  OBLIQUE     
 TWO-SIDED PLANE GROUP N.  1          :  P 1             
 CORRESPONDING SPACE GROUP N.   1

 LATTICE PARAMETERS  (ANGSTROMS AND DEGREES) - CONVENTIONAL CELL
           A              B            GAMMA
       14.96419       14.96419      120.00000


 NUMBER OF IRREDUCIBLE ATOMS IN THE CONVENTIONAL CELL:   71

 INPUT COORDINATES

 ATOM AT. N.              COORDINATES
   1   5     9.444440000000E-01  5.555600000000E-02  0.000000000000E+00
   2   5     9.444440000000E-01  2.222220000000E-01  0.000000000000E+00
   3   5     9.444440000000E-01  3.888890000000E-01  0.000000000000E+00
   4   5     9.444440000000E-01  5.555560000000E-01  0.000000000000E+00
   5   5     9.444440000000E-01  7.222220000000E-01  0.000000000000E+00
   6   5     9.444440000000E-01  8.888890000000E-01  0.000000000000E+00
   7   5     1.111110000000E-01  5.555600000000E-02  0.000000000000E+00
   8   5     1.111110000000E-01  2.222220000000E-01  0.000000000000E+00
   9   5     1.111110000000E-01  3.888890000000E-01  0.000000000000E+00
  10   5     1.111110000000E-01  5.555560000000E-01  0.000000000000E+00
  11   5     1.111110000000E-01  7.222220000000E-01  0.000000000000E+00
  12   5     1.111110000000E-01  8.888890000000E-01  0.000000000000E+00
  13   5     2.777780000000E-01  5.555600000000E-02  0.000000000000E+00
  14   5     2.777780000000E-01  2.222220000000E-01  0.000000000000E+00
  15   5     2.777780000000E-01  3.888890000000E-01  0.000000000000E+00
  16   5     2.777780000000E-01  5.555560000000E-01  0.000000000000E+00
  17   5     2.777780000000E-01  7.222220000000E-01  0.000000000000E+00
  18   5     2.777780000000E-01  8.888890000000E-01  0.000000000000E+00
  19   5     4.444440000000E-01  5.555600000000E-02  0.000000000000E+00
  20   5     4.444440000000E-01  2.222220000000E-01  0.000000000000E+00
  21   5     4.444440000000E-01  3.888890000000E-01  0.000000000000E+00
  22   5     4.444440000000E-01  5.555560000000E-01  0.000000000000E+00
  23   5     4.444440000000E-01  7.222220000000E-01  0.000000000000E+00
  24   5     4.444440000000E-01  8.888890000000E-01  0.000000000000E+00
  25   5     6.111110000000E-01  5.555600000000E-02  0.000000000000E+00
  26   5     6.111110000000E-01  2.222220000000E-01  0.000000000000E+00
  27   5     6.111110000000E-01  3.888890000000E-01  0.000000000000E+00
  28   5     6.111110000000E-01  7.222220000000E-01  0.000000000000E+00
  29   5     6.111110000000E-01  8.888890000000E-01  0.000000000000E+00
  30   5     7.777780000000E-01  5.555600000000E-02  0.000000000000E+00
  31   5     7.777780000000E-01  2.222220000000E-01  0.000000000000E+00
  32   5     7.777780000000E-01  3.888890000000E-01  0.000000000000E+00
  33   5     7.777780000000E-01  5.555560000000E-01  0.000000000000E+00
  34   5     7.777780000000E-01  7.222220000000E-01  0.000000000000E+00
  35   5     7.777780000000E-01  8.888890000000E-01  0.000000000000E+00
  36   7     5.555600000000E-02  9.444440000000E-01  0.000000000000E+00
  37   7     5.555600000000E-02  1.111110000000E-01  0.000000000000E+00
  38   7     5.555600000000E-02  2.777780000000E-01  0.000000000000E+00
  39   7     5.555600000000E-02  4.444440000000E-01  0.000000000000E+00
  40   7     5.555600000000E-02  6.111110000000E-01  0.000000000000E+00
  41   7     5.555600000000E-02  7.777780000000E-01  0.000000000000E+00
  42   7     2.222220000000E-01  9.444440000000E-01  0.000000000000E+00
  43   7     2.222220000000E-01  1.111110000000E-01  0.000000000000E+00
  44   7     2.222220000000E-01  2.777780000000E-01  0.000000000000E+00
  45   7     2.222220000000E-01  4.444440000000E-01  0.000000000000E+00
  46   7     2.222220000000E-01  6.111110000000E-01  0.000000000000E+00
  47   7     2.222220000000E-01  7.777780000000E-01  0.000000000000E+00
  48   7     3.888890000000E-01  9.444440000000E-01  0.000000000000E+00
  49   7     3.888890000000E-01  1.111110000000E-01  0.000000000000E+00
  50   7     3.888890000000E-01  2.777780000000E-01  0.000000000000E+00
  51   7     3.888890000000E-01  4.444440000000E-01  0.000000000000E+00
  52   7     3.888890000000E-01  6.111110000000E-01  0.000000000000E+00
  53   7     3.888890000000E-01  7.777780000000E-01  0.000000000000E+00
  54   7     5.555560000000E-01  9.444440000000E-01  0.000000000000E+00
  55   7     5.555560000000E-01  1.111110000000E-01  0.000000000000E+00
  56   7     5.555560000000E-01  2.777780000000E-01  0.000000000000E+00
  57   7     5.555560000000E-01  6.111110000000E-01  0.000000000000E+00
  58   7     5.555560000000E-01  7.777780000000E-01  0.000000000000E+00
  59   7     7.222220000000E-01  9.444440000000E-01  0.000000000000E+00
  60   7     7.222220000000E-01  1.111110000000E-01  0.000000000000E+00
  61   7     7.222220000000E-01  2.777780000000E-01  0.000000000000E+00
  62   7     7.222220000000E-01  4.444440000000E-01  0.000000000000E+00
  63   7     7.222220000000E-01  6.111110000000E-01  0.000000000000E+00
  64   7     7.222220000000E-01  7.777780000000E-01  0.000000000000E+00
  65   7     8.888890000000E-01  9.444440000000E-01  0.000000000000E+00
  66   7     8.888890000000E-01  1.111110000000E-01  0.000000000000E+00
  67   7     8.888890000000E-01  2.777780000000E-01  0.000000000000E+00
  68   7     8.888890000000E-01  4.444440000000E-01  0.000000000000E+00
  69   7     8.888890000000E-01  6.111110000000E-01  0.000000000000E+00
  70   7     8.888890000000E-01  7.777780000000E-01  0.000000000000E+00
  71 278     5.833330000000E-01  5.000000000000E-01  0.000000000000E+00

 *******************************************************************************

 << INFORMATION >>: FROM NOW ON, ALL COORDINATES REFER TO THE PRIMITIVE CELL

 *******************************************************************************

 LATTICE PARAMETERS  (ANGSTROMS AND DEGREES) - PRIMITIVE CELL
       A          B          C        ALPHA      BETA     GAMMA        VOLUME
   14.96419   14.96419  500.00000    90.00000  90.00000 120.00000    193.926455

 COORDINATES OF THE EQUIVALENT ATOMS 
 (X AND Y IN FRACTIONARY UNITS, Z IN ANGSTROMS)

 N. ATOM EQUIV AT. N.          X                  Y                  Z

   1   1   1    5 B    -5.55560000000E-02  5.55560000000E-02  0.00000000000E+00

   2   2   1    5 B    -5.55560000000E-02  2.22222000000E-01  0.00000000000E+00

   3   3   1    5 B    -5.55560000000E-02  3.88889000000E-01  0.00000000000E+00

   4   4   1    5 B    -5.55560000000E-02 -4.44444000000E-01  0.00000000000E+00

   5   5   1    5 B    -5.55560000000E-02 -2.77778000000E-01  0.00000000000E+00

   6   6   1    5 B    -5.55560000000E-02 -1.11111000000E-01  0.00000000000E+00

   7   7   1    5 B     1.11111000000E-01  5.55560000000E-02  0.00000000000E+00

   8   8   1    5 B     1.11111000000E-01  2.22222000000E-01  0.00000000000E+00

   9   9   1    5 B     1.11111000000E-01  3.88889000000E-01  0.00000000000E+00

  10  10   1    5 B     1.11111000000E-01 -4.44444000000E-01  0.00000000000E+00

  11  11   1    5 B     1.11111000000E-01 -2.77778000000E-01  0.00000000000E+00

  12  12   1    5 B     1.11111000000E-01 -1.11111000000E-01  0.00000000000E+00

  13  13   1    5 B     2.77778000000E-01  5.55560000000E-02  0.00000000000E+00

  14  14   1    5 B     2.77778000000E-01  2.22222000000E-01  0.00000000000E+00

  15  15   1    5 B     2.77778000000E-01  3.88889000000E-01  0.00000000000E+00

  16  16   1    5 B     2.77778000000E-01 -4.44444000000E-01  0.00000000000E+00

  17  17   1    5 B     2.77778000000E-01 -2.77778000000E-01  0.00000000000E+00

  18  18   1    5 B     2.77778000000E-01 -1.11111000000E-01  0.00000000000E+00

  19  19   1    5 B     4.44444000000E-01  5.55560000000E-02  0.00000000000E+00

  20  20   1    5 B     4.44444000000E-01  2.22222000000E-01  0.00000000000E+00

  21  21   1    5 B     4.44444000000E-01  3.88889000000E-01  0.00000000000E+00

  22  22   1    5 B     4.44444000000E-01 -4.44444000000E-01  0.00000000000E+00

  23  23   1    5 B     4.44444000000E-01 -2.77778000000E-01  0.00000000000E+00

  24  24   1    5 B     4.44444000000E-01 -1.11111000000E-01  0.00000000000E+00

  25  25   1    5 B    -3.88889000000E-01  5.55560000000E-02  0.00000000000E+00

  26  26   1    5 B    -3.88889000000E-01  2.22222000000E-01  0.00000000000E+00

  27  27   1    5 B    -3.88889000000E-01  3.88889000000E-01  0.00000000000E+00

  28  28   1    5 B    -3.88889000000E-01 -2.77778000000E-01  0.00000000000E+00

  29  29   1    5 B    -3.88889000000E-01 -1.11111000000E-01  0.00000000000E+00

  30  30   1    5 B    -2.22222000000E-01  5.55560000000E-02  0.00000000000E+00

  31  31   1    5 B    -2.22222000000E-01  2.22222000000E-01  0.00000000000E+00

  32  32   1    5 B    -2.22222000000E-01  3.88889000000E-01  0.00000000000E+00

  33  33   1    5 B    -2.22222000000E-01 -4.44444000000E-01  0.00000000000E+00

  34  34   1    5 B    -2.22222000000E-01 -2.77778000000E-01  0.00000000000E+00

  35  35   1    5 B    -2.22222000000E-01 -1.11111000000E-01  0.00000000000E+00

  36  36   1    7 N     5.55560000000E-02 -5.55560000000E-02  0.00000000000E+00

  37  37   1    7 N     5.55560000000E-02  1.11111000000E-01  0.00000000000E+00

  38  38   1    7 N     5.55560000000E-02  2.77778000000E-01  0.00000000000E+00

  39  39   1    7 N     5.55560000000E-02  4.44444000000E-01  0.00000000000E+00

  40  40   1    7 N     5.55560000000E-02 -3.88889000000E-01  0.00000000000E+00

  41  41   1    7 N     5.55560000000E-02 -2.22222000000E-01  0.00000000000E+00

  42  42   1    7 N     2.22222000000E-01 -5.55560000000E-02  0.00000000000E+00

  43  43   1    7 N     2.22222000000E-01  1.11111000000E-01  0.00000000000E+00

  44  44   1    7 N     2.22222000000E-01  2.77778000000E-01  0.00000000000E+00

  45  45   1    7 N     2.22222000000E-01  4.44444000000E-01  0.00000000000E+00

  46  46   1    7 N     2.22222000000E-01 -3.88889000000E-01  0.00000000000E+00

  47  47   1    7 N     2.22222000000E-01 -2.22222000000E-01  0.00000000000E+00

  48  48   1    7 N     3.88889000000E-01 -5.55560000000E-02  0.00000000000E+00

  49  49   1    7 N     3.88889000000E-01  1.11111000000E-01  0.00000000000E+00

  50  50   1    7 N     3.88889000000E-01  2.77778000000E-01  0.00000000000E+00

  51  51   1    7 N     3.88889000000E-01  4.44444000000E-01  0.00000000000E+00

  52  52   1    7 N     3.88889000000E-01 -3.88889000000E-01  0.00000000000E+00

  53  53   1    7 N     3.88889000000E-01 -2.22222000000E-01  0.00000000000E+00

  54  54   1    7 N    -4.44444000000E-01 -5.55560000000E-02  0.00000000000E+00

  55  55   1    7 N    -4.44444000000E-01  1.11111000000E-01  0.00000000000E+00

  56  56   1    7 N    -4.44444000000E-01  2.77778000000E-01  0.00000000000E+00

  57  57   1    7 N    -4.44444000000E-01 -3.88889000000E-01  0.00000000000E+00

  58  58   1    7 N    -4.44444000000E-01 -2.22222000000E-01  0.00000000000E+00

  59  59   1    7 N    -2.77778000000E-01 -5.55560000000E-02  0.00000000000E+00

  60  60   1    7 N    -2.77778000000E-01  1.11111000000E-01  0.00000000000E+00

  61  61   1    7 N    -2.77778000000E-01  2.77778000000E-01  0.00000000000E+00

  62  62   1    7 N    -2.77778000000E-01  4.44444000000E-01  0.00000000000E+00

  63  63   1    7 N    -2.77778000000E-01 -3.88889000000E-01  0.00000000000E+00

  64  64   1    7 N    -2.77778000000E-01 -2.22222000000E-01  0.00000000000E+00

  65  65   1    7 N    -1.11111000000E-01 -5.55560000000E-02  0.00000000000E+00

  66  66   1    7 N    -1.11111000000E-01  1.11111000000E-01  0.00000000000E+00

  67  67   1    7 N    -1.11111000000E-01  2.77778000000E-01  0.00000000000E+00

  68  68   1    7 N    -1.11111000000E-01  4.44444000000E-01  0.00000000000E+00

  69  69   1    7 N    -1.11111000000E-01 -3.88889000000E-01  0.00000000000E+00

  70  70   1    7 N    -1.11111000000E-01 -2.22222000000E-01  0.00000000000E+00

  71  71   1  278 PT   -4.16667000000E-01 -5.00000000000E-01  0.00000000000E+00

 NUMBER OF SYMMETRY OPERATORS         :    1
 *******************************************************************************
 * GEOMETRY EDITING - INPUT COORDINATES ARE GIVEN IN ANGSTROM         
 *******************************************************************************
 INFORMATION **** NEW DEFAULT **** FINALRUN 4 FOR GEOMETRY OPTIMIZATIONS
 INFORMATION **** NEW DEFAULT **** OPTGEOM OPTIMIZES BOTH ATOMIC COORDINATES AND CELL PARAMETERS
 INFORMATION **** NEW DEFAULT **** TOL. ON ATOMIC DISP TO REDEFINE REF. GEOMETRY: 0.8 Angs
 INFORMATION **** NEW DEFAULT **** N POINTS TO REDEFINE REF. GEOMETRY: N OF OPT DEGS OF FREEDOM
 INFORMATION **** NEW DEFAULT **** TOL. ON ENERGY TO REDEFINE REF. GEOMETRY: 10**-3*(5*N. ATOMS)
 INFORMATION **** FULLOPTG **** FULL OPTIMIZATION (ATOMS AND CELL PARAMETERS)
 INFORMATION **** MAXCYCLE ****   MAXIMUM NUMBER OF OPTIMIZATION CYCLES         800

 IMPORTANT INFORMATION:
 THE COORDINATE SYSTEM ADOPTED IN THE OPTIMIZATION IS NOT IN
 GENERAL HOMOGENEOUS UNITS. FOR THIS REASON THE GRADIENT AND 
 HESSIAN MATRIX IN TERMS OF THIS SYSTEM ARE GIVEN WITHOUT
 UNITS. FOR MORE DETAILS SEE THE MANUAL.

 *******************************************************************************
 COMBINED CELL/ATOM OPTIMIZATION CONTROL

 INITIAL TRUST RADIUS         0.50000 MAXIMUM TRUST RADIUS               4.00000
 MAXIMUM GRADIENT COMPONENT   0.00045 MAXIMUM DISPLACEMENT COMPONENT     0.00180
 R.M.S. OF GRADIENT COMPONENT 0.00030 R.M.S. OF DISPLACEMENT COMPONENTS  0.00120
 THRESHOLD ON ENERGY CHANGE 0.100E-06 EXTRAPOLATING POLYNOMIAL ORDER           2
 MAXIMUM ALLOWED NUMBER OF STEPS  800 SORTING OF ENERGY POINTS:               NO
 ANALYTICAL  GRADIENT                 HESSIAN UPDATING                      BFGS
 STEP SIZE NUMERICAL GRADIENT 0.00100
 INITIAL HESSIAN MATRIX: SCHLEGEL MODEL 2
 *******************************************************************************


 GCALCO - MAX INDICES DIRECT LATTICE VECTOR    83    83     0
 NO.OF VECTORS CREATED 6999 STARS  503 RMAX  1243.27732 BOHR

 GEOMETRY FOR WAVE FUNCTION - DIMENSIONALITY OF THE SYSTEM    2
 (NON PERIODIC DIRECTION: LATTICE PARAMETER FORMALLY SET TO 500)
 *******************************************************************************
 LATTICE PARAMETERS (ANGSTROMS AND DEGREES) - BOHR = 0.5291772083 ANGSTROM
 PRIMITIVE CELL
         A              B              C           ALPHA      BETA       GAMMA 
    14.96419000    14.96419000   500.00000000    90.000000  90.000000 120.000000
 *******************************************************************************
 ATOMS IN THE ASYMMETRIC UNIT   71 - ATOMS IN THE UNIT CELL:   71
     ATOM                 X/A                 Y/B             Z(ANGSTROM)
 *******************************************************************************
      1 T   5 B    -5.555600000000E-02  5.555600000000E-02  0.000000000000E+00
      2 T   5 B    -5.555600000000E-02  2.222220000000E-01  0.000000000000E+00
      3 T   5 B    -5.555600000000E-02  3.888890000000E-01  0.000000000000E+00
      4 T   5 B    -5.555600000000E-02 -4.444440000000E-01  0.000000000000E+00
      5 T   5 B    -5.555600000000E-02 -2.777780000000E-01  0.000000000000E+00
      6 T   5 B    -5.555600000000E-02 -1.111110000000E-01  0.000000000000E+00
      7 T   5 B     1.111110000000E-01  5.555600000000E-02  0.000000000000E+00
      8 T   5 B     1.111110000000E-01  2.222220000000E-01  0.000000000000E+00
      9 T   5 B     1.111110000000E-01  3.888890000000E-01  0.000000000000E+00
     10 T   5 B     1.111110000000E-01 -4.444440000000E-01  0.000000000000E+00
     11 T   5 B     1.111110000000E-01 -2.777780000000E-01  0.000000000000E+00
     12 T   5 B     1.111110000000E-01 -1.111110000000E-01  0.000000000000E+00
     13 T   5 B     2.777780000000E-01  5.555600000000E-02  0.000000000000E+00
     14 T   5 B     2.777780000000E-01  2.222220000000E-01  0.000000000000E+00
     15 T   5 B     2.777780000000E-01  3.888890000000E-01  0.000000000000E+00
     16 T   5 B     2.777780000000E-01 -4.444440000000E-01  0.000000000000E+00
     17 T   5 B     2.777780000000E-01 -2.777780000000E-01  0.000000000000E+00
     18 T   5 B     2.777780000000E-01 -1.111110000000E-01  0.000000000000E+00
     19 T   5 B     4.444440000000E-01  5.555600000000E-02  0.000000000000E+00
     20 T   5 B     4.444440000000E-01  2.222220000000E-01  0.000000000000E+00
     21 T   5 B     4.444440000000E-01  3.888890000000E-01  0.000000000000E+00
     22 T   5 B     4.444440000000E-01 -4.444440000000E-01  0.000000000000E+00
     23 T   5 B     4.444440000000E-01 -2.777780000000E-01  0.000000000000E+00
     24 T   5 B     4.444440000000E-01 -1.111110000000E-01  0.000000000000E+00
     25 T   5 B    -3.888890000000E-01  5.555600000000E-02  0.000000000000E+00
     26 T   5 B    -3.888890000000E-01  2.222220000000E-01  0.000000000000E+00
     27 T   5 B    -3.888890000000E-01  3.888890000000E-01  0.000000000000E+00
     28 T   5 B    -3.888890000000E-01 -2.777780000000E-01  0.000000000000E+00
     29 T   5 B    -3.888890000000E-01 -1.111110000000E-01  0.000000000000E+00
     30 T   5 B    -2.222220000000E-01  5.555600000000E-02  0.000000000000E+00
     31 T   5 B    -2.222220000000E-01  2.222220000000E-01  0.000000000000E+00
     32 T   5 B    -2.222220000000E-01  3.888890000000E-01  0.000000000000E+00
     33 T   5 B    -2.222220000000E-01 -4.444440000000E-01  0.000000000000E+00
     34 T   5 B    -2.222220000000E-01 -2.777780000000E-01  0.000000000000E+00
     35 T   5 B    -2.222220000000E-01 -1.111110000000E-01  0.000000000000E+00
     36 T   7 N     5.555600000000E-02 -5.555600000000E-02  0.000000000000E+00
     37 T   7 N     5.555600000000E-02  1.111110000000E-01  0.000000000000E+00
     38 T   7 N     5.555600000000E-02  2.777780000000E-01  0.000000000000E+00
     39 T   7 N     5.555600000000E-02  4.444440000000E-01  0.000000000000E+00
     40 T   7 N     5.555600000000E-02 -3.888890000000E-01  0.000000000000E+00
     41 T   7 N     5.555600000000E-02 -2.222220000000E-01  0.000000000000E+00
     42 T   7 N     2.222220000000E-01 -5.555600000000E-02  0.000000000000E+00
     43 T   7 N     2.222220000000E-01  1.111110000000E-01  0.000000000000E+00
     44 T   7 N     2.222220000000E-01  2.777780000000E-01  0.000000000000E+00
     45 T   7 N     2.222220000000E-01  4.444440000000E-01  0.000000000000E+00
     46 T   7 N     2.222220000000E-01 -3.888890000000E-01  0.000000000000E+00
     47 T   7 N     2.222220000000E-01 -2.222220000000E-01  0.000000000000E+00
     48 T   7 N     3.888890000000E-01 -5.555600000000E-02  0.000000000000E+00
     49 T   7 N     3.888890000000E-01  1.111110000000E-01  0.000000000000E+00
     50 T   7 N     3.888890000000E-01  2.777780000000E-01  0.000000000000E+00
     51 T   7 N     3.888890000000E-01  4.444440000000E-01  0.000000000000E+00
     52 T   7 N     3.888890000000E-01 -3.888890000000E-01  0.000000000000E+00
     53 T   7 N     3.888890000000E-01 -2.222220000000E-01  0.000000000000E+00
     54 T   7 N    -4.444440000000E-01 -5.555600000000E-02  0.000000000000E+00
     55 T   7 N    -4.444440000000E-01  1.111110000000E-01  0.000000000000E+00
     56 T   7 N    -4.444440000000E-01  2.777780000000E-01  0.000000000000E+00
     57 T   7 N    -4.444440000000E-01 -3.888890000000E-01  0.000000000000E+00
     58 T   7 N    -4.444440000000E-01 -2.222220000000E-01  0.000000000000E+00
     59 T   7 N    -2.777780000000E-01 -5.555600000000E-02  0.000000000000E+00
     60 T   7 N    -2.777780000000E-01  1.111110000000E-01  0.000000000000E+00
     61 T   7 N    -2.777780000000E-01  2.777780000000E-01  0.000000000000E+00
     62 T   7 N    -2.777780000000E-01  4.444440000000E-01  0.000000000000E+00
     63 T   7 N    -2.777780000000E-01 -3.888890000000E-01  0.000000000000E+00
     64 T   7 N    -2.777780000000E-01 -2.222220000000E-01  0.000000000000E+00
     65 T   7 N    -1.111110000000E-01 -5.555600000000E-02  0.000000000000E+00
     66 T   7 N    -1.111110000000E-01  1.111110000000E-01  0.000000000000E+00
     67 T   7 N    -1.111110000000E-01  2.777780000000E-01  0.000000000000E+00
     68 T   7 N    -1.111110000000E-01  4.444440000000E-01  0.000000000000E+00
     69 T   7 N    -1.111110000000E-01 -3.888890000000E-01  0.000000000000E+00
     70 T   7 N    -1.111110000000E-01 -2.222220000000E-01  0.000000000000E+00
     71 T 278 PT   -4.166670000000E-01  5.000000000000E-01  0.000000000000E+00

 T = ATOM BELONGING TO THE ASYMMETRIC UNIT

 ****    1 SYMMOPS - TRANSLATORS IN FRACTIONAL UNITS
 **** MATRICES AND TRANSLATORS IN THE CRYSTALLOGRAPHIC REFERENCE FRAME
   V INV                    ROTATION MATRICES                   TRANSLATORS
   1   1  1.00  0.00  0.00  0.00  1.00  0.00 -0.00 -0.00  1.00  0.00  0.00  0.00

 DIRECT LATTICE VECTORS CARTESIAN COMPONENTS (ANGSTROM)
          X                    Y                    Z
   0.129593686871E+02  -0.748209500000E+01   0.000000000000E+00
   0.000000000000E+00   0.149641900000E+02   0.000000000000E+00
   0.000000000000E+00   0.000000000000E+00   0.500000000000E+03


 CARTESIAN COORDINATES - PRIMITIVE CELL
 *******************************************************************************
 *      ATOM          X(ANGSTROM)         Y(ANGSTROM)         Z(ANGSTROM)
 *******************************************************************************
    1     5 B    -7.199706867781E-01  1.247025809460E+00  0.000000000000E+00
    2     5 B    -7.199706867781E-01  3.741047500000E+00  0.000000000000E+00
    3     5 B    -7.199706867781E-01  6.235084154730E+00  0.000000000000E+00
    4     5 B    -7.199706867781E-01 -6.235069190540E+00  0.000000000000E+00
    5     5 B    -7.199706867781E-01 -3.741047500000E+00  0.000000000000E+00
    6     5 B    -7.199706867781E-01 -1.247010845270E+00  0.000000000000E+00
    7     5 B     1.439928414188E+00  7.482095000362E-06  0.000000000000E+00
    8     5 B     1.439928414188E+00  2.494029172635E+00  0.000000000000E+00
    9     5 B     1.439928414188E+00  4.988065827365E+00  0.000000000000E+00
   10     5 B     1.439928414188E+00 -7.482087517905E+00  0.000000000000E+00
   11     5 B     1.439928414188E+00 -4.988065827365E+00  0.000000000000E+00
   12     5 B     1.439928414188E+00 -2.494029172635E+00  0.000000000000E+00
   13     5 B     3.599827515153E+00 -1.247010845270E+00  0.000000000000E+00
   14     5 B     3.599827515153E+00  1.247010845270E+00  0.000000000000E+00
   15     5 B     3.599827515153E+00  3.741047500000E+00  0.000000000000E+00
   16     5 B     3.599827515153E+00  6.235084154730E+00  0.000000000000E+00
   17     5 B     3.599827515153E+00 -6.235084154730E+00  0.000000000000E+00
   18     5 B     3.599827515153E+00 -3.741047500000E+00  0.000000000000E+00
   19     5 B     5.759713656750E+00 -2.494021690540E+00  0.000000000000E+00
   20     5 B     5.759713656750E+00  1.410011329828E-15  0.000000000000E+00
   21     5 B     5.759713656750E+00  2.494036654730E+00  0.000000000000E+00
   22     5 B    -7.199655030307E+00 -2.494021690540E+00  0.000000000000E+00
   23     5 B    -7.199655030307E+00 -1.880015106437E-15  0.000000000000E+00
   24     5 B     5.759713656750E+00 -4.988058345270E+00  0.000000000000E+00
   25     5 B    -5.039755929341E+00  3.741054982095E+00  0.000000000000E+00
   26     5 B    -5.039755929341E+00  6.235076672635E+00  0.000000000000E+00
   27     5 B    -5.039755929341E+00 -6.235076672635E+00  0.000000000000E+00
   28     5 B    -5.039755929341E+00 -1.247018327365E+00  0.000000000000E+00
   29     5 B    -5.039755929341E+00  1.247018327365E+00  0.000000000000E+00
   30     5 B    -2.879856828375E+00  2.494036654730E+00  0.000000000000E+00
   31     5 B    -2.879856828375E+00  4.988058345270E+00  0.000000000000E+00
   32     5 B    -2.879856828375E+00 -7.482095000000E+00  0.000000000000E+00
   33     5 B    -2.879856828375E+00 -4.988058345270E+00  0.000000000000E+00
   34     5 B    -2.879856828375E+00 -2.494036654730E+00  0.000000000000E+00
   35     5 B    -2.879856828375E+00  0.000000000000E+00  0.000000000000E+00
   36     7 N     7.199706867781E-01 -1.247025809460E+00  0.000000000000E+00
   37     7 N     7.199706867781E-01  1.247010845270E+00  0.000000000000E+00
   38     7 N     7.199706867781E-01  3.741047500000E+00  0.000000000000E+00
   39     7 N     7.199706867781E-01  6.235069190540E+00  0.000000000000E+00
   40     7 N     7.199706867781E-01 -6.235084154730E+00  0.000000000000E+00
   41     7 N     7.199706867781E-01 -3.741047500000E+00  0.000000000000E+00
   42     7 N     2.879856828375E+00 -2.494036654730E+00  0.000000000000E+00
   43     7 N     2.879856828375E+00  7.050056649138E-16  0.000000000000E+00
   44     7 N     2.879856828375E+00  2.494036654730E+00  0.000000000000E+00
   45     7 N     2.879856828375E+00  4.988058345270E+00  0.000000000000E+00
   46     7 N     2.879856828375E+00 -7.482095000000E+00  0.000000000000E+00
   47     7 N     2.879856828375E+00 -4.988058345270E+00  0.000000000000E+00
   48     7 N     5.039755929341E+00 -3.741054982095E+00  0.000000000000E+00
   49     7 N     5.039755929341E+00 -1.247018327365E+00  0.000000000000E+00
   50     7 N     5.039755929341E+00  1.247018327365E+00  0.000000000000E+00
   51     7 N     5.039755929341E+00  3.741040017905E+00  0.000000000000E+00
   52     7 N    -7.919612757716E+00 -1.247018327365E+00  0.000000000000E+00
   53     7 N    -7.919612757716E+00  1.247018327365E+00  0.000000000000E+00
   54     7 N    -5.759713656750E+00  2.494021690540E+00  0.000000000000E+00
   55     7 N    -5.759713656750E+00  4.988058345270E+00  0.000000000000E+00
   56     7 N     7.199655030307E+00  2.350018883046E-15  0.000000000000E+00
   57     7 N    -5.759713656750E+00 -2.494036654730E+00  0.000000000000E+00
   58     7 N    -5.759713656750E+00 -2.350018883046E-15  0.000000000000E+00
   59     7 N    -3.599827515153E+00  1.247010845270E+00  0.000000000000E+00
   60     7 N    -3.599827515153E+00  3.741047500000E+00  0.000000000000E+00
   61     7 N    -3.599827515153E+00  6.235084154730E+00  0.000000000000E+00
   62     7 N    -3.599827515153E+00 -6.235084154730E+00  0.000000000000E+00
   63     7 N    -3.599827515153E+00 -3.741047500000E+00  0.000000000000E+00
   64     7 N    -3.599827515153E+00 -1.247010845270E+00  0.000000000000E+00
   65     7 N    -1.439928414188E+00 -7.482095001420E-06  0.000000000000E+00
   66     7 N    -1.439928414188E+00  2.494029172635E+00  0.000000000000E+00
   67     7 N    -1.439928414188E+00  4.988065827365E+00  0.000000000000E+00
   68     7 N    -1.439928414188E+00  7.482087517905E+00  0.000000000000E+00
   69     7 N    -1.439928414188E+00 -4.988065827365E+00  0.000000000000E+00
   70     7 N    -1.439928414188E+00 -2.494029172635E+00  0.000000000000E+00
   71   278 PT   -5.399741272730E+00  1.059963707736E+01  0.000000000000E+00

 *******************************************************************************
 *** PSEUDOPOTENTIAL INFORMATION ***
 *******************************************************************************

 ATOMIC NUMBER  78, NUCLEAR CHARGE 18.000, GIVEN IN INPUT       PSEUDOPOTENTIAL
   TYPE       EXPONENT      COEFF.    N      EXPONENT      COEFF.    N
  P0 TMS    14.6045000  429.6460870   0     7.2182870   73.1568840   0
  P1 TMS    11.5771620   88.0229170   0    10.8838430  175.9981960   0
             6.4244030   13.6822740   0     5.2241980   27.4146510   0
  P2 TMS     7.6996100   43.5578520   0     7.5508080   65.3691080   0
             3.9611640    7.0185960   0     3.8727770   11.3917330   0
  P3 TMS     3.3798690   10.7102200   0     3.3262550   14.2781250   0
  P4 TMS     5.4520200  -11.6517490   0     5.4125850  -14.3755250   0

 *******************************************************************************
 LOCAL ATOMIC FUNCTIONS BASIS SET
 *******************************************************************************
   ATOM   X(AU)   Y(AU)   Z(AU)  N. TYPE  EXPONENT  S COEF   P COEF   D/F/G COEF
 *******************************************************************************
   1 B   -1.361   2.357   0.000
                                  1 S  
                                         8.393E+02-5.593E-03 0.000E+00 0.000E+00
                                         1.263E+02-4.157E-02 0.000E+00 0.000E+00
                                         2.862E+01-1.830E-01 0.000E+00 0.000E+00
                                         7.879E+00-4.654E-01 0.000E+00 0.000E+00
                                         2.409E+00-4.417E-01 0.000E+00 0.000E+00
                                  2 S  
                                         1.028E+00 1.000E+00 0.000E+00 0.000E+00
                                  3 S  
                                         2.245E-01 1.000E+00 0.000E+00 0.000E+00
                           4-     6 P  
                                         6.033E+00 0.000E+00-3.560E-02 0.000E+00
                                         1.250E+00 0.000E+00-1.990E-01 0.000E+00
                                         3.387E-01 0.000E+00-5.085E-01 0.000E+00
                           7-     9 P  
                                         2.288E-01 0.000E+00 1.000E+00 0.000E+00
                          10-    14 D  
                                         5.684E-01 0.000E+00 0.000E+00 1.000E+00
   2 B   -1.361   7.070   0.000
   3 B   -1.361  11.783   0.000
   4 B   -1.361 -11.783   0.000
   5 B   -1.361  -7.070   0.000
   6 B   -1.361  -2.357   0.000
   7 B    2.721   0.000   0.000
   8 B    2.721   4.713   0.000
   9 B    2.721   9.426   0.000
  10 B    2.721 -14.139   0.000
  11 B    2.721  -9.426   0.000
  12 B    2.721  -4.713   0.000
  13 B    6.803  -2.357   0.000
  14 B    6.803   2.357   0.000
  15 B    6.803   7.070   0.000
  16 B    6.803  11.783   0.000
  17 B    6.803 -11.783   0.000
  18 B    6.803  -7.070   0.000
  19 B   10.884  -4.713   0.000
  20 B   10.884   0.000   0.000
  21 B   10.884   4.713   0.000
  22 B  -13.605  -4.713   0.000
  23 B  -13.605  -0.000   0.000
  24 B   10.884  -9.426   0.000
  25 B   -9.524   7.070   0.000
  26 B   -9.524  11.783   0.000
  27 B   -9.524 -11.783   0.000
  28 B   -9.524  -2.357   0.000
  29 B   -9.524   2.357   0.000
  30 B   -5.442   4.713   0.000
  31 B   -5.442   9.426   0.000
  32 B   -5.442 -14.139   0.000
  33 B   -5.442  -9.426   0.000
  34 B   -5.442  -4.713   0.000
  35 B   -5.442   0.000   0.000
  36 N    1.361  -2.357   0.000
                                491 S  
                                         1.713E+03-5.393E-03 0.000E+00 0.000E+00
                                         2.576E+02-4.022E-02 0.000E+00 0.000E+00
                                         5.846E+01-1.793E-01 0.000E+00 0.000E+00
                                         1.620E+01-4.638E-01 0.000E+00 0.000E+00
                                         5.005E+00-4.417E-01 0.000E+00 0.000E+00
                                492 S  
                                         6.349E-01 1.000E+00 0.000E+00 0.000E+00
                                493 S  
                                         2.108E-01 1.000E+00 0.000E+00 0.000E+00
                         494-   496 P  
                                         1.357E+01 0.000E+00-4.007E-02 0.000E+00
                                         2.926E+00 0.000E+00-2.181E-01 0.000E+00
                                         7.993E-01 0.000E+00-5.129E-01 0.000E+00
                         497-   499 P  
                                         2.392E-01 0.000E+00 1.000E+00 0.000E+00
                         500-   504 D  
                                         5.120E-01 0.000E+00 0.000E+00 1.000E+00
  37 N    1.361   2.357   0.000
  38 N    1.361   7.070   0.000
  39 N    1.361  11.783   0.000
  40 N    1.361 -11.783   0.000
  41 N    1.361  -7.070   0.000
  42 N    5.442  -4.713   0.000
  43 N    5.442   0.000   0.000
  44 N    5.442   4.713   0.000
  45 N    5.442   9.426   0.000
  46 N    5.442 -14.139   0.000
  47 N    5.442  -9.426   0.000
  48 N    9.524  -7.070   0.000
  49 N    9.524  -2.357   0.000
  50 N    9.524   2.357   0.000
  51 N    9.524   7.070   0.000
  52 N  -14.966  -2.357   0.000
  53 N  -14.966   2.357   0.000
  54 N  -10.884   4.713   0.000
  55 N  -10.884   9.426   0.000
  56 N   13.605   0.000   0.000
  57 N  -10.884  -4.713   0.000
  58 N  -10.884  -0.000   0.000
  59 N   -6.803   2.357   0.000
  60 N   -6.803   7.070   0.000
  61 N   -6.803  11.783   0.000
  62 N   -6.803 -11.783   0.000
  63 N   -6.803  -7.070   0.000
  64 N   -6.803  -2.357   0.000
  65 N   -2.721  -0.000   0.000
  66 N   -2.721   4.713   0.000
  67 N   -2.721   9.426   0.000
  68 N   -2.721  14.139   0.000
  69 N   -2.721  -9.426   0.000
  70 N   -2.721  -4.713   0.000
  71 PT -10.204  20.030   0.000
                                981 S  
                                         3.000E+01 2.715E-01 0.000E+00 0.000E+00
                                         2.700E+01-4.223E-01 0.000E+00 0.000E+00
                                         1.441E+01 4.436E-01 0.000E+00 0.000E+00
                                982 S  
                                         5.763E+00 1.000E+00 0.000E+00 0.000E+00
                                983 S  
                                         1.068E+00 1.000E+00 0.000E+00 0.000E+00
                                984 S  
                                         1.537E-01 1.000E+00 0.000E+00 0.000E+00
                         985-   987 P  
                                         1.550E+01 0.000E+00-1.567E-01 0.000E+00
                                         1.400E+01 0.000E+00 2.385E-01 0.000E+00
                                         6.116E+00 0.000E+00-3.104E-01 0.000E+00
                                         1.572E+00 0.000E+00 5.647E-01 0.000E+00
                         988-   990 P  
                                         7.723E-01 0.000E+00 1.000E+00 0.000E+00
                         991-   993 P  
                                         2.529E-01 0.000E+00 1.000E+00 0.000E+00
                         994-   998 D  
                                         8.321E+00 0.000E+00 0.000E+00 6.295E-02
                                         7.421E+00 0.000E+00 0.000E+00-9.027E-02
                                         1.657E+00 0.000E+00 0.000E+00 1.681E-01
                                         7.394E-01 0.000E+00 0.000E+00 2.505E-01
                         999-  1003 D  
                                         1.125E+00 0.000E+00 0.000E+00 1.000E+00
                        1004-  1008 D  
                                         2.756E-01 0.000E+00 0.000E+00 1.000E+00
                        1009-  1015 F  
                                         5.681E-01 0.000E+00 0.000E+00 1.000E+00
 INFORMATION **** SET_MPP **** PCRYSTAL CALCULATION
 INFORMATION **** READM2 **** NEW DEFAULT: FOCK/KS MATRIX MIXING SET TO 30 %
 INFORMATION **** READM2 **** NEW DEFAULT: FULL DIRECT SCF MODE
 INFORMATION **** READM2 **** NEW DEFAULT: COULOMB BIPOLAR BUFFER SET TO 32 Mb
 INFORMATION **** READM2 **** NEW DEFAULT: EXCHANGE BIPOLAR BUFFER SET TO 32 Mb

 *******************************************************************************
 NEW DEFAULT: DFT INTEGRATION GRID INCREASED TO XLGRID
 NEW DEFAULT: DIIS ACCELERATOR ACTIVE
 USE KEYWORD NODIIS TO TURN IT OFF
 *******************************************************************************

 WARNING **** RDDFTP **** HSE06-HJS ACTIVE
 RANGE SEPARATION - OMEGA:   0.110000000000000     
 INFORMATION **** DFTD3_INPUT **** PERFORM LATEST DISPERSION CORRECTION DFT-D3(BJ) WITH AUTOMATIC PARAMETER SETUP
 PLEASE CITE:
 (1) DFT-D3 Reference
  S. Grimme, J. Antony, S. Ehrlich, and H. Krieg, J. Chem. Phys. 132 (2010), 154104
 (2) BJ-Damping Reference
  S. Grimme, S. Ehrlich, and L. Goerigk, J. Comput. Chem. 32 (2011), 1456-1465
 (3) General DFT-D Review
  S. Grimme, A. Hansen, J. G. Brandenburg, and C. Bannwarth,
  Chem. Rev. 116 (2016), 5105-5154

 INFORMATION **** TOLINTEG **** COULOMB AND EXCHANGE SERIES TOLERANCES MODIFIED
 INFORMATION **** TOLDEE **** SCF TOL ON TOTAL ENERGY SET TO           7
 INFORMATION **** READM2 **** FULL DIRECT SCF (MONO AND BIEL INT) SELECTED
 INFORMATION **** BIPOSIZE **** COULOMB BIPOLAR BUFFER SET TO   110000000
 INFORMATION **** EXCHSIZE **** EXCHANGE BIPOLAR BUFFER SIZE SET TO   110000000
 INFORMATION **** MAXCYCLE **** MAX NUMBER OF SCF CYCLES SET TO         800
 INFORMATION **** DIIS **** DIIS FOR SCF ACTIVE
 INFORMATION **** DIIS **** LEVEL SHIFTER DISABLED
 INFORMATION **** PPAN ****  MULLIKEN POPULATION ANALYSIS AT THE END OF SCF
 *******************************************************************************
 N. OF ATOMS PER CELL        71  COULOMB OVERLAP TOL         (T1) 10**   -9
 NUMBER OF SHELLS           431  COULOMB PENETRATION TOL     (T2) 10**   -9
 NUMBER OF AO              1015  EXCHANGE OVERLAP TOL        (T3) 10**   -9
 N. OF ELECTRONS PER CELL   438  EXCHANGE PSEUDO OVP (F(G))  (T4) 10**   -9
 CORE ELECTRONS PER CELL    140  EXCHANGE PSEUDO OVP (P(G))  (T5) 10**  -18
 N. OF SYMMETRY OPERATORS     1  POLE ORDER IN MONO ZONE                  4
 *******************************************************************************
 TYPE OF CALCULATION :  UNRESTRICTED OPEN SHELL
 KOHN-SHAM HAMILTONIAN

 (EXCHANGE)[CORRELATION] FUNCTIONAL:(HSE06 SR/GGA)[PERDEW-BURKE-ERNZERHOF]

 RANGE-SEPARATED HYBRID FUNCTIONAL 
 OMEGA (SHORT-RANGE)[LONG-RANGE]:(    0.1100)[    0.0000]

 HYBRID EXCHANGE - PERCENTAGE OF FOCK EXCHANGE    25.0000

 SPIN POLARIZED DFT SELECTED
 CORE  PSEUDO POTENTIAL         TOL. ON PSEUDO              (TP) 10**- 6

 CAPPA:IS1  3;IS2  3;IS3  1; K PTS MONK NET   5; SYMMOPS:K SPACE   2;G SPACE   1

 *******************************************************************************
 MAX NUMBER OF SCF CYCLES     800  CONVERGENCE ON DELTAP        10**-17
 WEIGHT OF F(I) IN F(I+1)      30% CONVERGENCE ON ENERGY        10**- 7
 SHRINK. FACT.(MONKH.)    3  3  1  NUMBER OF K POINTS IN THE IBZ      5
 SHRINKING FACTOR(GILAT NET)    6  NUMBER OF K POINTS(GILAT NET)     20
 *******************************************************************************
 *** K POINTS COORDINATES (OBLIQUE COORDINATES IN UNITS OF IS =  3)
   1-R(  0  0  0)   2-C(  1  0  0)   3-C(  0  1  0)   4-C(  1  1  0)
   5-C(  2  1  0)

 DIRECT LATTICE VECTORS COMPON. (A.U.)     RECIP. LATTICE VECTORS COMPON. (A.U.) 
        X            Y            Z              X            Y            Z
   24.4896577  -14.1391105    0.0000000      0.2565648    0.0000000    0.0000000
    0.0000000   28.2782209    0.0000000      0.1282824    0.2221917    0.0000000
    0.0000000    0.0000000  944.8630670      0.0000000    0.0000000    0.0066498

 DISK SPACE FOR EIGENVECTORS (FTN 10)     9272025 REALS

 SYMMETRY ADAPTION OF THE BLOCH FUNCTIONS DISABLED
 TTTTTTTTTTTTTTTTTTTTTTTTTTTTTT gordsh1     TELAPSE        2.02 TCPU        1.17

 MATRIX SIZE: P(G)  934199, F(G)  232156, P(G) IRR  468787, F(G) IRR  233336
 MAX G-VECTOR INDEX FOR 1- AND 2-ELECTRON INTEGRALS  13

 TTTTTTTTTTTTTTTTTTTTTTTTTTTTTT INPUT       TELAPSE        2.12 TCPU        1.27

 NEIGHBORS OF THE NON-EQUIVALENT ATOMS

 N = NUMBER OF NEIGHBORS AT DISTANCE R
    ATOM  N     R/ANG      R/AU   NEIGHBORS (ATOM LABELS AND CELL INDICES)
   1 B    1     1.4399     2.7210   66 N    0 0 0
   1 B    2     1.4399     2.7211   37 N    0 0 0   65 N    0 0 0
   1 B    2     2.4940     4.7130    2 B    0 0 0   30 B    0 0 0
   1 B    2     2.4940     4.7130    8 B    0 0 0   35 B    0 0 0
   1 B    2     2.4940     4.7130    6 B    0 0 0    7 B    0 0 0
   1 B    2     2.8799     5.4421   38 N    0 0 0   59 N    0 0 0

   2 B    2     1.4399     2.7211   66 N    0 0 0   67 N    0 0 0
   2 B    1     1.4399     2.7211   38 N    0 0 0
   2 B    3     2.4940     4.7130    1 B    0 0 0   30 B    0 0 0   31 B    0 0 0
   2 B    3     2.4940     4.7130    3 B    0 0 0    8 B    0 0 0    9 B    0 0 0
   2 B    2     2.8799     5.4421   60 N    0 0 0   39 N    0 0 0
   2 B    1     2.8799     5.4422   37 N    0 0 0

   3 B    1     1.4399     2.7210   68 N    0 0 0
   3 B    1     1.4399     2.7211   67 N    0 0 0
   3 B    1     1.4399     2.7211   39 N    0 0 0
   3 B    1     2.4940     4.7130   32 B    0 1 0
   3 B    1     2.4940     4.7130   31 B    0 0 0
   3 B    4     2.4940     4.7130    2 B    0 0 0    4 B    0 1 0    9 B    0 0 0
                                    10 B    0 1 0

   4 B    1     1.4399     2.7210   69 N    0 0 0
   4 B    2     1.4399     2.7211   40 N    0 0 0   68 N    0-1 0
   4 B    2     2.4940     4.7130    5 B    0 0 0   33 B    0 0 0
   4 B    2     2.4940     4.7130   11 B    0 0 0   32 B    0 0 0
   4 B    2     2.4940     4.7130    3 B    0-1 0   10 B    0 0 0
   4 B    2     2.8799     5.4421   41 N    0 0 0   62 N    0 0 0

   5 B    2     1.4399     2.7211   69 N    0 0 0   70 N    0 0 0
   5 B    1     1.4399     2.7211   41 N    0 0 0
   5 B    3     2.4940     4.7130    4 B    0 0 0   33 B    0 0 0   34 B    0 0 0
   5 B    3     2.4940     4.7130    6 B    0 0 0   11 B    0 0 0   12 B    0 0 0
   5 B    2     2.8799     5.4421   63 N    0 0 0   36 N    0 0 0
   5 B    1     2.8799     5.4422   40 N    0 0 0

   6 B    1     1.4399     2.7210   65 N    0 0 0
   6 B    1     1.4399     2.7211   70 N    0 0 0
   6 B    1     1.4399     2.7211   36 N    0 0 0
   6 B    1     2.4940     4.7130   35 B    0 0 0
   6 B    1     2.4940     4.7130   34 B    0 0 0
   6 B    4     2.4940     4.7130    1 B    0 0 0    5 B    0 0 0    7 B    0 0 0
                                    12 B    0 0 0

   7 B    1     1.4399     2.7210   37 N    0 0 0
   7 B    1     1.4399     2.7211   43 N    0 0 0
   7 B    1     1.4399     2.7211   36 N    0 0 0
   7 B    1     2.4940     4.7130    8 B    0 0 0
   7 B    1     2.4940     4.7130   14 B    0 0 0
   7 B    4     2.4940     4.7130    1 B    0 0 0    6 B    0 0 0   12 B    0 0 0
                                    13 B    0 0 0

   8 B    3     1.4399     2.7211   37 N    0 0 0   38 N    0 0 0   44 N    0 0 0
   8 B    1     2.4940     4.7130    7 B    0 0 0
   8 B    1     2.4940     4.7130    1 B    0 0 0
   8 B    4     2.4940     4.7130    2 B    0 0 0    9 B    0 0 0   14 B    0 0 0
                                    15 B    0 0 0
   8 B    3     2.8799     5.4421   43 N    0 0 0   45 N    0 0 0   66 N    0 0 0
   8 B    1     3.8097     7.1993   39 N    0 0 0

   9 B    1     1.4399     2.7210   39 N    0 0 0
   9 B    2     1.4399     2.7211   38 N    0 0 0   45 N    0 0 0
   9 B    6     2.4940     4.7130    2 B    0 0 0    3 B    0 0 0    8 B    0 0 0
                                    10 B    0 1 0   15 B    0 0 0   16 B    0 0 0
   9 B    3     2.8799     5.4421   44 N    0 0 0   46 N    0 1 0   67 N    0 0 0
   9 B    2     3.8097     7.1993   40 N    0 1 0   68 N    0 0 0
   9 B    2     3.8097     7.1993   52 N    1 1 0   66 N    0 0 0

  10 B    1     1.4399     2.7210   40 N    0 0 0
  10 B    1     1.4399     2.7211   46 N    0 0 0
  10 B    1     1.4399     2.7211   39 N    0-1 0
  10 B    1     2.4940     4.7130   11 B    0 0 0
  10 B    1     2.4940     4.7130   17 B    0 0 0
  10 B    4     2.4940     4.7130    3 B    0-1 0    4 B    0 0 0    9 B    0-1 0
                                    16 B    0-1 0

  11 B    3     1.4399     2.7211   40 N    0 0 0   41 N    0 0 0   47 N    0 0 0
  11 B    1     2.4940     4.7130   10 B    0 0 0
  11 B    1     2.4940     4.7130    4 B    0 0 0
  11 B    4     2.4940     4.7130    5 B    0 0 0   12 B    0 0 0   17 B    0 0 0
                                    18 B    0 0 0
  11 B    3     2.8799     5.4421   42 N    0 0 0   46 N    0 0 0   69 N    0 0 0
  11 B    1     3.8097     7.1993   36 N    0 0 0

  12 B    1     1.4399     2.7210   36 N    0 0 0
  12 B    2     1.4399     2.7211   41 N    0 0 0   42 N    0 0 0
  12 B    6     2.4940     4.7130    5 B    0 0 0    6 B    0 0 0    7 B    0 0 0
                                    11 B    0 0 0   13 B    0 0 0   18 B    0 0 0
  12 B    3     2.8799     5.4421   43 N    0 0 0   47 N    0 0 0   70 N    0 0 0
  12 B    2     3.8097     7.1993   37 N    0 0 0   65 N    0 0 0
  12 B    2     3.8097     7.1993   49 N    0 0 0   69 N    0 0 0

  13 B    2     1.4399     2.7211   43 N    0 0 0   49 N    0 0 0
  13 B    1     1.4399     2.7211   42 N    0 0 0
  13 B    3     2.4940     4.7130   14 B    0 0 0   19 B    0 0 0   20 B    0 0 0
  13 B    3     2.4940     4.7130    7 B    0 0 0   12 B    0 0 0   18 B    0 0 0
  13 B    2     2.8799     5.4421   50 N    0 0 0   36 N    0 0 0
  13 B    1     2.8799     5.4422   48 N    0 0 0

  14 B    2     1.4399     2.7211   43 N    0 0 0   50 N    0 0 0
  14 B    1     1.4399     2.7211   44 N    0 0 0
  14 B    2     2.4940     4.7130   13 B    0 0 0   20 B    0 0 0
  14 B    2     2.4940     4.7130    7 B    0 0 0   21 B    0 0 0
  14 B    2     2.4940     4.7130    8 B    0 0 0   15 B    0 0 0
  14 B    3     2.8799     5.4421   37 N    0 0 0   49 N    0 0 0   51 N    0 0 0

  15 B    3     1.4399     2.7211   44 N    0 0 0   45 N    0 0 0   51 N    0 0 0
  15 B    1     2.4940     4.7130   21 B    0 0 0
  15 B    1     2.4940     4.7130   22 B    1 1 0
  15 B    4     2.4940     4.7130    8 B    0 0 0    9 B    0 0 0   14 B    0 0 0
                                    16 B    0 0 0
  15 B    3     2.8799     5.4421   38 N    0 0 0   50 N    0 0 0   52 N    1 1 0
  15 B    1     3.8097     7.1993   39 N    0 0 0

  16 B    2     1.4399     2.7211   46 N    0 1 0   52 N    1 1 0
  16 B    1     1.4399     2.7211   45 N    0 0 0
  16 B    3     2.4940     4.7130   17 B    0 1 0   22 B    1 1 0   23 B    1 1 0
  16 B    3     2.4940     4.7130    9 B    0 0 0   10 B    0 1 0   15 B    0 0 0
  16 B    2     2.8799     5.4421   53 N    1 1 0   39 N    0 0 0
  16 B    1     2.8799     5.4422   51 N    0 0 0

  17 B    2     1.4399     2.7211   46 N    0 0 0   53 N    1 0 0
  17 B    1     1.4399     2.7211   47 N    0 0 0
  17 B    2     2.4940     4.7130   16 B    0-1 0   23 B    1 0 0
  17 B    2     2.4940     4.7130   10 B    0 0 0   24 B    0 0 0
  17 B    2     2.4940     4.7130   11 B    0 0 0   18 B    0 0 0
  17 B    3     2.8799     5.4421   40 N    0 0 0   48 N    0 0 0   52 N    1 0 0

  18 B    3     1.4399     2.7211   42 N    0 0 0   47 N    0 0 0   48 N    0 0 0
  18 B    1     2.4940     4.7130   24 B    0 0 0
  18 B    1     2.4940     4.7130   19 B    0 0 0
  18 B    4     2.4940     4.7130   11 B    0 0 0   12 B    0 0 0   13 B    0 0 0
                                    17 B    0 0 0
  18 B    3     2.8799     5.4421   41 N    0 0 0   49 N    0 0 0   53 N    1 0 0
  18 B    1     3.8097     7.1993   36 N    0 0 0

  19 B    1     1.4399     2.7210   49 N    0 0 0
  19 B    2     1.4399     2.7211   48 N    0 0 0   55 N    1 0 0
  19 B    2     2.4940     4.7130   13 B    0 0 0   20 B    0 0 0
  19 B    2     2.4940     4.7130   18 B    0 0 0   26 B    1 0 0
  19 B    2     2.4940     4.7130   24 B    0 0 0   25 B    1 0 0
  19 B    2     2.8799     5.4421   42 N    0 0 0   56 N    0 0 0

  20 B    2     1.4399     2.7211   49 N    0 0 0   50 N    0 0 0
  20 B    1     1.4399     2.7211   56 N    0 0 0
  20 B    3     2.4940     4.7130   13 B    0 0 0   14 B    0 0 0   19 B    0 0 0
  20 B    3     2.4940     4.7130   21 B    0 0 0   26 B    1 0 0   27 B    1 1 0
  20 B    1     2.8799     5.4421   43 N    0 0 0
  20 B    1     2.8799     5.4422   55 N    1 0 0

  21 B    1     1.4399     2.7210   51 N    0 0 0
  21 B    1     1.4399     2.7211   50 N    0 0 0
  21 B    1     1.9048     3.5996   71 PT   1 0 0
  21 B    1     2.4940     4.7130   15 B    0 0 0
  21 B    1     2.4940     4.7130   14 B    0 0 0
  21 B    3     2.4940     4.7130   20 B    0 0 0   22 B    1 1 0   27 B    1 1 0

  22 B    1     1.4399     2.7210   52 N    0 0 0
  22 B    2     1.4399     2.7211   51 N   -1-1 0   57 N    0 0 0
  22 B    2     2.4940     4.7130   16 B   -1-1 0   23 B    0 0 0
  22 B    2     2.4940     4.7130   15 B   -1-1 0   28 B    0 0 0
  22 B    1     2.4940     4.7130   21 B   -1-1 0
  22 B    1     2.5959     4.9055   71 PT   0-1 0

  23 B    2     1.4399     2.7211   52 N    0 0 0   53 N    0 0 0
  23 B    1     1.4399     2.7211   58 N    0 0 0
  23 B    3     2.4940     4.7130   16 B   -1-1 0   17 B   -1 0 0   22 B    0 0 0
  23 B    3     2.4940     4.7130   24 B   -1 0 0   28 B    0 0 0   29 B    0 0 0
  23 B    2     2.8799     5.4421   46 N   -1 0 0   54 N    0 0 0
  23 B    1     2.8799     5.4422   57 N    0 0 0

  24 B    1     1.4399     2.7210   48 N    0 0 0
  24 B    1     1.4399     2.7211   53 N    1 0 0
  24 B    1     1.4399     2.7211   54 N    1 0 0
  24 B    1     2.4940     4.7130   18 B    0 0 0
  24 B    1     2.4940     4.7130   17 B    0 0 0
  24 B    4     2.4940     4.7130   19 B    0 0 0   23 B    1 0 0   25 B    1 0 0
                                    29 B    1 0 0

  25 B    1     1.4399     2.7210   55 N    0 0 0
  25 B    1     1.4399     2.7211   60 N    0 0 0
  25 B    1     1.4399     2.7211   54 N    0 0 0
  25 B    1     2.4940     4.7130   26 B    0 0 0
  25 B    1     2.4940     4.7130   31 B    0 0 0
  25 B    4     2.4940     4.7130   19 B   -1 0 0   24 B   -1 0 0   29 B    0 0 0
                                    30 B    0 0 0

  26 B    3     1.4399     2.7211   55 N    0 0 0   56 N   -1 0 0   61 N    0 0 0
  26 B    1     2.4940     4.7130   25 B    0 0 0
  26 B    1     2.4940     4.7130   19 B   -1 0 0
  26 B    4     2.4940     4.7130   20 B   -1 0 0   27 B    0 1 0   31 B    0 0 0
                                    32 B    0 1 0
  26 B    3     2.8799     5.4421   49 N   -1 0 0   60 N    0 0 0   62 N    0 1 0
  26 B    4     3.8097     7.1993   48 N   -1 0 0   50 N   -1 0 0   67 N    0 0 0
                                    68 N    0 0 0

  27 B    2     1.4399     2.7211   56 N   -1-1 0   62 N    0 0 0
  27 B    1     1.9048     3.5996   71 PT   0-1 0
  27 B    5     2.4940     4.7130   20 B   -1-1 0   21 B   -1-1 0   26 B    0-1 0
                                    32 B    0 0 0   33 B    0 0 0
  27 B    3     2.8799     5.4421   50 N   -1-1 0   61 N    0-1 0   63 N    0 0 0
  27 B    2     3.8097     7.1993   51 N   -1-1 0   57 N    0 0 0
  27 B    2     3.8097     7.1993   49 N   -1-1 0   69 N    0 0 0

  28 B    3     1.4399     2.7211   57 N    0 0 0   58 N    0 0 0   64 N    0 0 0
  28 B    1     2.4940     4.7130   22 B    0 0 0
  28 B    4     2.4940     4.7130   23 B    0 0 0   29 B    0 0 0   34 B    0 0 0
                                    35 B    0 0 0
  28 B    3     2.8799     5.4421   52 N    0 0 0   59 N    0 0 0   63 N    0 0 0
  28 B    1     3.1382     5.9304   71 PT   0-1 0
  28 B    1     3.8097     7.1993   54 N    0 0 0

  29 B    1     1.4399     2.7210   54 N    0 0 0
  29 B    2     1.4399     2.7211   58 N    0 0 0   59 N    0 0 0
  29 B    6     2.4940     4.7130   23 B    0 0 0   24 B   -1 0 0   25 B    0 0 0
                                    28 B    0 0 0   30 B    0 0 0   35 B    0 0 0
  29 B    3     2.8799     5.4421   53 N    0 0 0   60 N    0 0 0   64 N    0 0 0
  29 B    2     3.8097     7.1993   48 N   -1 0 0   55 N    0 0 0
  29 B    2     3.8097     7.1993   52 N    0 0 0   66 N    0 0 0

  30 B    2     1.4399     2.7211   60 N    0 0 0   66 N    0 0 0
  30 B    1     1.4399     2.7211   59 N    0 0 0
  30 B    3     2.4940     4.7130    1 B    0 0 0    2 B    0 0 0   31 B    0 0 0
  30 B    3     2.4940     4.7130   25 B    0 0 0   29 B    0 0 0   35 B    0 0 0
  30 B    2     2.8799     5.4421   67 N    0 0 0   54 N    0 0 0
  30 B    1     2.8799     5.4422   65 N    0 0 0

  31 B    2     1.4399     2.7211   60 N    0 0 0   67 N    0 0 0
  31 B    1     1.4399     2.7211   61 N    0 0 0
  31 B    2     2.4940     4.7130    2 B    0 0 0   30 B    0 0 0
  31 B    2     2.4940     4.7130    3 B    0 0 0   25 B    0 0 0
  31 B    2     2.4940     4.7130   26 B    0 0 0   32 B    0 1 0
  31 B    3     2.8799     5.4421   55 N    0 0 0   66 N    0 0 0   68 N    0 0 0

  32 B    3     1.4399     2.7211   61 N    0-1 0   62 N    0 0 0   68 N    0-1 0
  32 B    1     2.4940     4.7130    3 B    0-1 0
  32 B    1     2.4940     4.7130    4 B    0 0 0
  32 B    4     2.4940     4.7130   26 B    0-1 0   27 B    0 0 0   31 B    0-1 0
                                    33 B    0 0 0
  32 B    3     2.8799     5.4421   56 N   -1-1 0   67 N    0-1 0   69 N    0 0 0
  32 B    4     3.8097     7.1993   40 N    0 0 0   55 N    0-1 0   60 N    0-1 0
                                    63 N    0 0 0

  33 B    2     1.4399     2.7211   63 N    0 0 0   69 N    0 0 0
  33 B    1     1.4399     2.7211   62 N    0 0 0
  33 B    3     2.4940     4.7130    4 B    0 0 0    5 B    0 0 0   34 B    0 0 0
  33 B    2     2.4940     4.7130   27 B    0 0 0   32 B    0 0 0
  33 B    1     2.5959     4.9055   71 PT   0-1 0
  33 B    1     2.8799     5.4421   70 N    0 0 0

  34 B    2     1.4399     2.7211   63 N    0 0 0   70 N    0 0 0
  34 B    1     1.4399     2.7211   64 N    0 0 0
  34 B    2     2.4940     4.7130    5 B    0 0 0   33 B    0 0 0
  34 B    1     2.4940     4.7130    6 B    0 0 0
  34 B    2     2.4940     4.7130   28 B    0 0 0   35 B    0 0 0
  34 B    3     2.8799     5.4421   57 N    0 0 0   65 N    0 0 0   69 N    0 0 0

  35 B    3     1.4399     2.7211   59 N    0 0 0   64 N    0 0 0   65 N    0 0 0
  35 B    1     2.4940     4.7130    6 B    0 0 0
  35 B    1     2.4940     4.7130    1 B    0 0 0
  35 B    4     2.4940     4.7130   28 B    0 0 0   29 B    0 0 0   30 B    0 0 0
                                    34 B    0 0 0
  35 B    3     2.8799     5.4421   58 N    0 0 0   66 N    0 0 0   70 N    0 0 0
  35 B    1     3.8097     7.1993   54 N    0 0 0

  36 N    1     1.4399     2.7210   12 B    0 0 0
  36 N    2     1.4399     2.7211    6 B    0 0 0    7 B    0 0 0
  36 N    2     2.4940     4.7130   41 N    0 0 0   42 N    0 0 0
  36 N    2     2.4940     4.7130   43 N    0 0 0   70 N    0 0 0
  36 N    2     2.4940     4.7130   37 N    0 0 0   65 N    0 0 0
  36 N    2     2.8799     5.4421    5 B    0 0 0   13 B    0 0 0

  37 N    1     1.4399     2.7210    7 B    0 0 0
  37 N    1     1.4399     2.7211    8 B    0 0 0
  37 N    1     1.4399     2.7211    1 B    0 0 0
  37 N    1     2.4940     4.7130   43 N    0 0 0
  37 N    1     2.4940     4.7130   44 N    0 0 0
  37 N    4     2.4940     4.7130   36 N    0 0 0   38 N    0 0 0   65 N    0 0 0
                                    66 N    0 0 0

  38 N    2     1.4399     2.7211    8 B    0 0 0    9 B    0 0 0
  38 N    1     1.4399     2.7211    2 B    0 0 0
  38 N    3     2.4940     4.7130   39 N    0 0 0   44 N    0 0 0   45 N    0 0 0
  38 N    3     2.4940     4.7130   37 N    0 0 0   66 N    0 0 0   67 N    0 0 0
  38 N    2     2.8799     5.4421   15 B    0 0 0    1 B    0 0 0
  38 N    1     2.8799     5.4422    3 B    0 0 0

  39 N    1     1.4399     2.7210    9 B    0 0 0
  39 N    2     1.4399     2.7211    3 B    0 0 0   10 B    0 1 0
  39 N    2     2.4940     4.7130   38 N    0 0 0   45 N    0 0 0
  39 N    2     2.4940     4.7130   46 N    0 1 0   67 N    0 0 0
  39 N    2     2.4940     4.7130   40 N    0 1 0   68 N    0 0 0
  39 N    2     2.8799     5.4421    2 B    0 0 0   16 B    0 0 0

  40 N    1     1.4399     2.7210   10 B    0 0 0
  40 N    1     1.4399     2.7211   11 B    0 0 0
  40 N    1     1.4399     2.7211    4 B    0 0 0
  40 N    1     2.4940     4.7130   46 N    0 0 0
  40 N    1     2.4940     4.7130   47 N    0 0 0
  40 N    4     2.4940     4.7130   39 N    0-1 0   41 N    0 0 0   68 N    0-1 0
                                    69 N    0 0 0

  41 N    2     1.4399     2.7211   11 B    0 0 0   12 B    0 0 0
  41 N    1     1.4399     2.7211    5 B    0 0 0
  41 N    3     2.4940     4.7130   36 N    0 0 0   42 N    0 0 0   47 N    0 0 0
  41 N    3     2.4940     4.7130   40 N    0 0 0   69 N    0 0 0   70 N    0 0 0
  41 N    2     2.8799     5.4421   18 B    0 0 0    4 B    0 0 0
  41 N    1     2.8799     5.4422    6 B    0 0 0

  42 N    2     1.4399     2.7211   12 B    0 0 0   18 B    0 0 0
  42 N    1     1.4399     2.7211   13 B    0 0 0
  42 N    3     2.4940     4.7130   36 N    0 0 0   41 N    0 0 0   47 N    0 0 0
  42 N    3     2.4940     4.7130   43 N    0 0 0   48 N    0 0 0   49 N    0 0 0
  42 N    2     2.8799     5.4421   11 B    0 0 0   19 B    0 0 0
  42 N    1     2.8799     5.4422    7 B    0 0 0

  43 N    3     1.4399     2.7211    7 B    0 0 0   13 B    0 0 0   14 B    0 0 0
  43 N    1     2.4940     4.7130   37 N    0 0 0
  43 N    1     2.4940     4.7130   36 N    0 0 0
  43 N    4     2.4940     4.7130   42 N    0 0 0   44 N    0 0 0   49 N    0 0 0
                                    50 N    0 0 0
  43 N    3     2.8799     5.4421    8 B    0 0 0   12 B    0 0 0   20 B    0 0 0
  43 N    1     3.8097     7.1993   19 B    0 0 0

  44 N    2     1.4399     2.7211    8 B    0 0 0   15 B    0 0 0
  44 N    1     1.4399     2.7211   14 B    0 0 0
  44 N    2     2.4940     4.7130   38 N    0 0 0   45 N    0 0 0
  44 N    2     2.4940     4.7130   37 N    0 0 0   51 N    0 0 0
  44 N    2     2.4940     4.7130   43 N    0 0 0   50 N    0 0 0
  44 N    3     2.8799     5.4421    7 B    0 0 0    9 B    0 0 0   21 B    0 0 0

  45 N    2     1.4399     2.7211    9 B    0 0 0   15 B    0 0 0
  45 N    1     1.4399     2.7211   16 B    0 0 0
  45 N    3     2.4940     4.7130   38 N    0 0 0   39 N    0 0 0   44 N    0 0 0
  45 N    3     2.4940     4.7130   46 N    0 1 0   51 N    0 0 0   52 N    1 1 0
  45 N    2     2.8799     5.4421    8 B    0 0 0   22 B    1 1 0
  45 N    1     2.8799     5.4422   10 B    0 1 0

  46 N    3     1.4399     2.7211   10 B    0 0 0   16 B    0-1 0   17 B    0 0 0
  46 N    1     2.4940     4.7130   40 N    0 0 0
  46 N    1     2.4940     4.7130   39 N    0-1 0
  46 N    4     2.4940     4.7130   45 N    0-1 0   47 N    0 0 0   52 N    1 0 0
                                    53 N    1 0 0
  46 N    3     2.8799     5.4421    9 B    0-1 0   11 B    0 0 0   23 B    1 0 0
  46 N    1     3.8097     7.1993   22 B    1 0 0

  47 N    2     1.4399     2.7211   11 B    0 0 0   18 B    0 0 0
  47 N    1     1.4399     2.7211   17 B    0 0 0
  47 N    2     2.4940     4.7130   41 N    0 0 0   42 N    0 0 0
  47 N    2     2.4940     4.7130   40 N    0 0 0   48 N    0 0 0
  47 N    2     2.4940     4.7130   46 N    0 0 0   53 N    1 0 0
  47 N    3     2.8799     5.4421   10 B    0 0 0   12 B    0 0 0   24 B    0 0 0

  48 N    1     1.4399     2.7210   24 B    0 0 0
  48 N    1     1.4399     2.7211   18 B    0 0 0
  48 N    1     1.4399     2.7211   19 B    0 0 0
  48 N    1     2.4940     4.7130   53 N    1 0 0
  48 N    1     2.4940     4.7130   47 N    0 0 0
  48 N    4     2.4940     4.7130   42 N    0 0 0   49 N    0 0 0   54 N    1 0 0
                                    55 N    1 0 0

  49 N    1     1.4399     2.7210   19 B    0 0 0
  49 N    2     1.4399     2.7211   13 B    0 0 0   20 B    0 0 0
  49 N    6     2.4940     4.7130   42 N    0 0 0   43 N    0 0 0   48 N    0 0 0
                                    50 N    0 0 0   55 N    1 0 0   56 N    0 0 0
  49 N    3     2.8799     5.4421   14 B    0 0 0   18 B    0 0 0   26 B    1 0 0
  49 N    2     3.8097     7.1993   24 B    0 0 0   25 B    1 0 0
  49 N    2     3.8097     7.1993   12 B    0 0 0   27 B    1 1 0

  50 N    3     1.4399     2.7211   14 B    0 0 0   20 B    0 0 0   21 B    0 0 0
  50 N    1     2.4940     4.7130   51 N    0 0 0
  50 N    4     2.4940     4.7130   43 N    0 0 0   44 N    0 0 0   49 N    0 0 0
                                    56 N    0 0 0
  50 N    3     2.8799     5.4421   13 B    0 0 0   15 B    0 0 0   27 B    1 1 0
  50 N    1     3.1382     5.9304   71 PT   1 0 0
  50 N    1     3.8097     7.1993   19 B    0 0 0

  51 N    1     1.4399     2.7210   21 B    0 0 0
  51 N    1     1.4399     2.7211   15 B    0 0 0
  51 N    1     1.4399     2.7211   22 B    1 1 0
  51 N    1     2.4940     4.7130   50 N    0 0 0
  51 N    1     2.4940     4.7130   44 N    0 0 0
  51 N    3     2.4940     4.7130   45 N    0 0 0   52 N    1 1 0   57 N    1 1 0

  52 N    1     1.4399     2.7210   22 B    0 0 0
  52 N    2     1.4399     2.7211   16 B   -1-1 0   23 B    0 0 0
  52 N    6     2.4940     4.7130   45 N   -1-1 0   46 N   -1 0 0   51 N   -1-1 0
                                    53 N    0 0 0   57 N    0 0 0   58 N    0 0 0
  52 N    3     2.8799     5.4421   15 B   -1-1 0   17 B   -1 0 0   28 B    0 0 0
  52 N    1     3.8097     7.1993   21 B   -1-1 0
  52 N    2     3.8097     7.1993    9 B   -1-1 0   29 B    0 0 0

  53 N    3     1.4399     2.7211   17 B   -1 0 0   23 B    0 0 0   24 B   -1 0 0
  53 N    1     2.4940     4.7130   48 N   -1 0 0
  53 N    1     2.4940     4.7130   54 N    0 0 0
  53 N    4     2.4940     4.7130   46 N   -1 0 0   47 N   -1 0 0   52 N    0 0 0
                                    58 N    0 0 0
  53 N    3     2.8799     5.4421   16 B   -1-1 0   18 B   -1 0 0   29 B    0 0 0
  53 N    1     3.8097     7.1993   22 B    0 0 0

  54 N    1     1.4399     2.7210   29 B    0 0 0
  54 N    2     1.4399     2.7211   24 B   -1 0 0   25 B    0 0 0
  54 N    2     2.4940     4.7130   58 N    0 0 0   59 N    0 0 0
  54 N    2     2.4940     4.7130   53 N    0 0 0   60 N    0 0 0
  54 N    2     2.4940     4.7130   48 N   -1 0 0   55 N    0 0 0
  54 N    2     2.8799     5.4421   23 B    0 0 0   30 B    0 0 0

  55 N    1     1.4399     2.7210   25 B    0 0 0
  55 N    1     1.4399     2.7211   26 B    0 0 0
  55 N    1     1.4399     2.7211   19 B   -1 0 0
  55 N    1     2.4940     4.7130   60 N    0 0 0
  55 N    1     2.4940     4.7130   61 N    0 0 0
  55 N    4     2.4940     4.7130   48 N   -1 0 0   49 N   -1 0 0   54 N    0 0 0
                                    56 N   -1 0 0

  56 N    2     1.4399     2.7211   26 B    1 0 0   27 B    1 1 0
  56 N    1     1.4399     2.7211   20 B    0 0 0
  56 N    2     2.4940     4.7130   61 N    1 0 0   62 N    1 1 0
  56 N    3     2.4940     4.7130   49 N    0 0 0   50 N    0 0 0   55 N    1 0 0
  56 N    2     2.8799     5.4421   32 B    1 1 0   19 B    0 0 0
  56 N    1     2.8799     5.4422   21 B    0 0 0

  57 N    1     1.4399     2.7211   28 B    0 0 0
  57 N    1     1.4399     2.7211   22 B    0 0 0
  57 N    1     1.9048     3.5996   71 PT   0-1 0
  57 N    1     2.4940     4.7130   63 N    0 0 0
  57 N    1     2.4940     4.7130   64 N    0 0 0
  57 N    3     2.4940     4.7130   51 N   -1-1 0   52 N    0 0 0   58 N    0 0 0

  58 N    2     1.4399     2.7211   28 B    0 0 0   29 B    0 0 0
  58 N    1     1.4399     2.7211   23 B    0 0 0
  58 N    3     2.4940     4.7130   54 N    0 0 0   59 N    0 0 0   64 N    0 0 0
  58 N    3     2.4940     4.7130   52 N    0 0 0   53 N    0 0 0   57 N    0 0 0
  58 N    2     2.8799     5.4421   35 B    0 0 0   22 B    0 0 0
  58 N    1     2.8799     5.4422   24 B   -1 0 0

  59 N    2     1.4399     2.7211   29 B    0 0 0   35 B    0 0 0
  59 N    1     1.4399     2.7211   30 B    0 0 0
  59 N    3     2.4940     4.7130   54 N    0 0 0   58 N    0 0 0   64 N    0 0 0
  59 N    3     2.4940     4.7130   60 N    0 0 0   65 N    0 0 0   66 N    0 0 0
  59 N    2     2.8799     5.4421   28 B    0 0 0    1 B    0 0 0
  59 N    1     2.8799     5.4422   25 B    0 0 0

  60 N    3     1.4399     2.7211   25 B    0 0 0   30 B    0 0 0   31 B    0 0 0
  60 N    1     2.4940     4.7130   55 N    0 0 0
  60 N    1     2.4940     4.7130   54 N    0 0 0
  60 N    4     2.4940     4.7130   59 N    0 0 0   61 N    0 0 0   66 N    0 0 0
                                    67 N    0 0 0
  60 N    3     2.8799     5.4421    2 B    0 0 0   26 B    0 0 0   29 B    0 0 0
  60 N    1     3.8097     7.1993    1 B    0 0 0

  61 N    2     1.4399     2.7211   26 B    0 0 0   32 B    0 1 0
  61 N    1     1.4399     2.7211   31 B    0 0 0
  61 N    2     2.4940     4.7130   56 N   -1 0 0   62 N    0 1 0
  61 N    2     2.4940     4.7130   55 N    0 0 0   68 N    0 0 0
  61 N    2     2.4940     4.7130   60 N    0 0 0   67 N    0 0 0
  61 N    3     2.8799     5.4421    3 B    0 0 0   25 B    0 0 0   27 B    0 1 0

  62 N    2     1.4399     2.7211   27 B    0 0 0   32 B    0 0 0
  62 N    1     1.4399     2.7211   33 B    0 0 0
  62 N    2     2.4940     4.7130   56 N   -1-1 0   61 N    0-1 0
  62 N    3     2.4940     4.7130   63 N    0 0 0   68 N    0-1 0   69 N    0 0 0
  62 N    1     2.5959     4.9055   71 PT   0-1 0
  62 N    2     2.8799     5.4421   26 B    0-1 0    4 B    0 0 0

  63 N    2     1.4399     2.7211   33 B    0 0 0   34 B    0 0 0
  63 N    1     1.9048     3.5996   71 PT   0-1 0
  63 N    1     2.4940     4.7130   57 N    0 0 0
  63 N    4     2.4940     4.7130   62 N    0 0 0   64 N    0 0 0   69 N    0 0 0
                                    70 N    0 0 0
  63 N    3     2.8799     5.4421    5 B    0 0 0   27 B    0 0 0   28 B    0 0 0
  63 N    1     3.8097     7.1993    4 B    0 0 0

  64 N    2     1.4399     2.7211   28 B    0 0 0   35 B    0 0 0
  64 N    1     1.4399     2.7211   34 B    0 0 0
  64 N    2     2.4940     4.7130   58 N    0 0 0   59 N    0 0 0
  64 N    2     2.4940     4.7130   57 N    0 0 0   65 N    0 0 0
  64 N    2     2.4940     4.7130   63 N    0 0 0   70 N    0 0 0
  64 N    2     2.8799     5.4421    6 B    0 0 0   29 B    0 0 0

  65 N    1     1.4399     2.7210    6 B    0 0 0
  65 N    1     1.4399     2.7211   35 B    0 0 0
  65 N    1     1.4399     2.7211    1 B    0 0 0
  65 N    1     2.4940     4.7130   70 N    0 0 0
  65 N    1     2.4940     4.7130   64 N    0 0 0
  65 N    4     2.4940     4.7130   36 N    0 0 0   37 N    0 0 0   59 N    0 0 0
                                    66 N    0 0 0

  66 N    1     1.4399     2.7210    1 B    0 0 0
  66 N    2     1.4399     2.7211    2 B    0 0 0   30 B    0 0 0
  66 N    6     2.4940     4.7130   37 N    0 0 0   38 N    0 0 0   59 N    0 0 0
                                    60 N    0 0 0   65 N    0 0 0   67 N    0 0 0
  66 N    3     2.8799     5.4421    8 B    0 0 0   31 B    0 0 0   35 B    0 0 0
  66 N    2     3.8097     7.1993    6 B    0 0 0    7 B    0 0 0
  66 N    2     3.8097     7.1993    9 B    0 0 0   29 B    0 0 0

  67 N    3     1.4399     2.7211    2 B    0 0 0    3 B    0 0 0   31 B    0 0 0
  67 N    1     2.4940     4.7130   68 N    0 0 0
  67 N    1     2.4940     4.7130   39 N    0 0 0
  67 N    4     2.4940     4.7130   38 N    0 0 0   60 N    0 0 0   61 N    0 0 0
                                    66 N    0 0 0
  67 N    3     2.8799     5.4421    9 B    0 0 0   30 B    0 0 0   32 B    0 1 0
  67 N    1     3.8097     7.1993    1 B    0 0 0

  68 N    1     1.4399     2.7210    3 B    0 0 0
  68 N    1     1.4399     2.7211   32 B    0 1 0
  68 N    1     1.4399     2.7211    4 B    0 1 0
  68 N    1     2.4940     4.7130   67 N    0 0 0
  68 N    1     2.4940     4.7130   61 N    0 0 0
  68 N    4     2.4940     4.7130   39 N    0 0 0   40 N    0 1 0   62 N    0 1 0
                                    69 N    0 1 0

  69 N    1     1.4399     2.7210    4 B    0 0 0
  69 N    2     1.4399     2.7211    5 B    0 0 0   33 B    0 0 0
  69 N    6     2.4940     4.7130   40 N    0 0 0   41 N    0 0 0   62 N    0 0 0
                                    63 N    0 0 0   68 N    0-1 0   70 N    0 0 0
  69 N    3     2.8799     5.4421   11 B    0 0 0   32 B    0 0 0   34 B    0 0 0
  69 N    2     3.8097     7.1993    3 B    0-1 0   10 B    0 0 0
  69 N    2     3.8097     7.1993   12 B    0 0 0   27 B    0 0 0

  70 N    3     1.4399     2.7211    5 B    0 0 0    6 B    0 0 0   34 B    0 0 0
  70 N    1     2.4940     4.7130   65 N    0 0 0
  70 N    1     2.4940     4.7130   36 N    0 0 0
  70 N    4     2.4940     4.7130   41 N    0 0 0   63 N    0 0 0   64 N    0 0 0
                                    69 N    0 0 0
  70 N    3     2.8799     5.4421   12 B    0 0 0   33 B    0 0 0   35 B    0 0 0
  70 N    1     3.8097     7.1993    4 B    0 0 0

  71 PT   1     1.9048     3.5996   57 N    0 1 0
  71 PT   2     1.9048     3.5996   21 B   -1 0 0   27 B    0 1 0
  71 PT   1     1.9048     3.5996   63 N    0 1 0
  71 PT   1     2.5959     4.9055   51 N   -1 0 0
  71 PT   2     2.5959     4.9055   22 B    0 1 0   33 B    0 1 0
  71 PT   1     2.5959     4.9055   62 N    0 1 0


 SYMMETRY ALLOWED ELASTIC DISTORTION 1
  0.7071068  0.0000000
  0.0000000  0.7071068

 SYMMETRY ALLOWED ELASTIC DISTORTION 2
  0.7071068  0.0000000
  0.0000000 -0.7071068

 SYMMETRY ALLOWED ELASTIC DISTORTION 3
  0.0000000  0.7071068
  0.7071068  0.0000000

 SYMMETRY ALLOWED INTERNAL DEGREE(S) OF FREEDOM: 210
 TTTTTTTTTTTTTTTTTTTTTTTTTTTTTT SYMM        TELAPSE        2.15 TCPU        1.30
 TTTTTTTTTTTTTTTTTTTTTTTTTTTTTT INT_SCREEN  TELAPSE        2.18 TCPU        1.33

 *******************************************************************************
 *                             OPTIMIZATION STARTS                             *
 *******************************************************************************
 RECLASIFICATION OF INDICES FOR INTEGRAL CALC ACCORDING TO DIFFERENT CRITERIA:
           FIXDELTE                  FIXDELTX              FIXDELTN
           1.0000000               0.80000000                213
 *******************************************************************************

 *******************************************************************************
 COORDINATE AND CELL OPTIMIZATION - POINT    1

 DFT PARAMETERS

     ATOM       ELECTRONS   NET CHARGE   R(ANGSTROM)
   1   5  B       5.0000      0.0000     0.89000000
  36   7  N       7.0000      0.0000     0.74000000
  71 278  PT     18.0000      0.0000     1.39000000

 SIZE OF GRID=    2252546
 TTTTTTTTTTTTTTTTTTTTTTTTTTTTTT MAKE_GRID2  TELAPSE        3.46 TCPU        2.60
 BECKE WEIGHT FUNCTION
 RADSAFE =     2.00
 TOLERANCES - DENSITY:10**- 6; POTENTIAL:10**- 9; GRID WGT:10**-14

 RADIAL INTEGRATION  - INTERVALS (POINTS,UPPER LIMIT):            1( 75,  4.0*R)

 ANGULAR INTEGRATION - INTERVALS (ACCURACY LEVEL [N. POINTS] UPPER LIMIT):
  1(  4[  86]   0.2)  2(  8[ 194]   0.5)  3( 12[ 350]   0.9)  4( 16[ 974]   3.5)
  5( 12[ 350]9999.0)
 TTTTTTTTTTTTTTTTTTTTTTTTTTTTTT INT_CALC    TELAPSE        3.50 TCPU        2.65

 *******************************************************************************
 hBN_slab_6x6_v_N_v_B_Pt                                                         
 CRYSTAL - SCF - TYPE OF CALCULATION :  UNRESTRICTED OPEN SHELL
 *******************************************************************************

 CAPPA:IS1  3;IS2  3;IS3  1; K PTS MONK NET   5; SYMMOPS:K SPACE   2;G SPACE   1

 TTTTTTTTTTTTTTTTTTTTTTTTTTTTTT SDIK        TELAPSE        4.78 TCPU        3.92

 AAAAAAAAAAAAAAAAAAAAAAAAAAAAAAAAAAAAAAAAAAAAAAAAAAAAAAAAAAAAAAAAAAAAAAAAAAAAAAA
         ATOMIC WAVEFUNCTION(S)


 NUCLEAR CHARGE  5.0  SYMMETRY SPECIES            S    P
 N. ELECTRONS    5.0  NUMBER OF PRIMITIVE GTOS    7    4
                      NUMBER OF CONTRACTED GTOS   3    2
                      NUMBER OF CLOSED SHELLS     2    0
                      OPEN SHELL OCCUPATION       0    1

  ZNUC SCFIT  TOTAL HF ENERGY   KINETIC ENERGY   VIRIAL THEOREM ACCURACY
   5.0   7   -2.443453004E+01  2.471954539E+01 -1.988470041E+00  3.9E-06

 NUCLEAR CHARGE  7.0  SYMMETRY SPECIES            S    P
 N. ELECTRONS    7.0  NUMBER OF PRIMITIVE GTOS    7    4
                      NUMBER OF CONTRACTED GTOS   3    2
                      NUMBER OF CLOSED SHELLS     2    0
                      OPEN SHELL OCCUPATION       0    3

  ZNUC SCFIT  TOTAL HF ENERGY   KINETIC ENERGY   VIRIAL THEOREM ACCURACY
   7.0   9   -5.433012196E+01  5.433288047E+01 -1.999949230E+00  2.1E-06

 NUCLEAR CHARGE 18.0  SYMMETRY SPECIES            S    P    D
 N. ELECTRONS   18.0  NUMBER OF PRIMITIVE GTOS    6    6    6
                      NUMBER OF CONTRACTED GTOS   4    3    3
                      NUMBER OF CLOSED SHELLS     2    1    0
                      OPEN SHELL OCCUPATION       0    0    8

  ZNUC SCFIT  TOTAL HF ENERGY   KINETIC ENERGY   VIRIAL THEOREM ACCURACY
  18.0  18   -1.183573729E+02  4.056074572E+01 -3.918027536E+00  3.6E-06

 AAAAAAAAAAAAAAAAAAAAAAAAAAAAAAAAAAAAAAAAAAAAAAAAAAAAAAAAAAAAAAAAAAAAAAAAAAAAAAA

 CHARGE NORMALIZATION FACTOR   1.00000000
 TOTAL ATOMIC CHARGES:
   5.0000000   5.0000000   5.0000000   5.0000000   5.0000000   5.0000000
   5.0000000   5.0000000   5.0000000   5.0000000   5.0000000   5.0000000
   5.0000000   5.0000000   5.0000000   5.0000000   5.0000000   5.0000000
   5.0000000   5.0000000   5.0000000   5.0000000   5.0000000   5.0000000
   5.0000000   5.0000000   5.0000000   5.0000000   5.0000000   5.0000000
   5.0000000   5.0000000   5.0000000   5.0000000   5.0000000   7.0000000
   7.0000000   7.0000000   7.0000000   7.0000000   7.0000000   7.0000000
   7.0000000   7.0000000   7.0000000   7.0000000   7.0000000   7.0000000
   7.0000000   7.0000000   7.0000000   7.0000000   7.0000000   7.0000000
   7.0000000   7.0000000   7.0000000   7.0000000   7.0000000   7.0000000
   7.0000000   7.0000000   7.0000000   7.0000000   7.0000000   7.0000000
   7.0000000   7.0000000   7.0000000   7.0000000  18.0000000
 SUMMED SPIN DENSITY           0.00000000
 TOTAL ATOMIC SPINS  :
   0.0000000   0.0000000   0.0000000   0.0000000   0.0000000   0.0000000
   0.0000000   0.0000000   0.0000000   0.0000000   0.0000000   0.0000000
   0.0000000   0.0000000   0.0000000   0.0000000   0.0000000   0.0000000
   0.0000000   0.0000000   0.0000000   0.0000000   0.0000000   0.0000000
   0.0000000   0.0000000   0.0000000   0.0000000   0.0000000   0.0000000
   0.0000000   0.0000000   0.0000000   0.0000000   0.0000000   0.0000000
   0.0000000   0.0000000   0.0000000   0.0000000   0.0000000   0.0000000
   0.0000000   0.0000000   0.0000000   0.0000000   0.0000000   0.0000000
   0.0000000   0.0000000   0.0000000   0.0000000   0.0000000   0.0000000
   0.0000000   0.0000000   0.0000000   0.0000000   0.0000000   0.0000000
   0.0000000   0.0000000   0.0000000   0.0000000   0.0000000   0.0000000
   0.0000000   0.0000000   0.0000000   0.0000000   0.0000000
 TTTTTTTTTTTTTTTTTTTTTTTTTTTTTT MOQGAD      TELAPSE        5.96 TCPU        5.09
 TTTTTTTTTTTTTTTTTTTTTTTTTTTTTT SHELLXN     TELAPSE       60.47 TCPU       59.46
 TTTTTTTTTTTTTTTTTTTTTTTTTTTTTT MONMO3      TELAPSE       64.46 TCPU       63.43
 NUMERICALLY INTEGRATED DENSITY    218.9999887855    218.9999887855
 TTTTTTTTTTTTTTTTTTTTTTTTTTTTTT NUMDFT      TELAPSE       66.37 TCPU       65.34
 CYC   0 ETOT(AU) -2.919988198398E+03 DETOT -2.92E+03 tst  0.00E+00 PX  1.00E+00
 TTTTTTTTTTTTTTTTTTTTTTTTTTTTTT DIIS        TELAPSE       66.44 TCPU       65.41
 TTTTTTTTTTTTTTTTTTTTTTTTTTTTTT FDIK        TELAPSE       90.47 TCPU       89.37

    ALPHA      ELECTRONS
 INSULATING STATE
 TOP OF VALENCE BANDS -    BAND    219; K    3; EIG -2.0795962E-01 AU
 TOP OF VALENCE BANDS -    BAND    219; K    1; EIG -2.0823316E-01 AU
 BOTTOM OF VIRTUAL BANDS - BAND    220; K    1; EIG -2.0154954E-01 AU
 INDIRECT ENERGY BAND GAP:   0.1744 eV

    BETA       ELECTRONS
 INSULATING STATE
 TOP OF VALENCE BANDS -    BAND    219; K    3; EIG -2.0795962E-01 AU
 TOP OF VALENCE BANDS -    BAND    219; K    1; EIG -2.0823316E-01 AU
 BOTTOM OF VIRTUAL BANDS - BAND    220; K    1; EIG -2.0154954E-01 AU
 INDIRECT ENERGY BAND GAP:   0.1744 eV
 TTTTTTTTTTTTTTTTTTTTTTTTTTTTTT PDIG        TELAPSE       91.13 TCPU       90.02
 CHARGE NORMALIZATION FACTOR   1.00000000
 TOTAL ATOMIC CHARGES:
   4.6533265   4.6534792   4.6530304   4.6551105   4.6547962   4.6547409
   4.6534246   4.6507537   4.6530472   4.6536776   4.6537469   4.6537752
   4.6524365   4.6373923   4.6493478   4.6551118   4.6537305   4.6535050
   4.6524365   4.6023235   4.8241184   4.5969811   4.6547973   4.6537591
   4.6534248   4.6374073   4.8242089   4.6674785   4.6547592   4.6533267
   4.6507362   4.6493558   4.5969847   4.6674525   4.6457742   7.3467692
   7.3469793   7.3468872   7.3463240   7.3465642   7.3461892   7.3466244
   7.3484826   7.3539362   7.3480992   7.3465567   7.3465409   7.3466188
   7.3422408   7.4551893   7.3093805   7.3596060   7.3461774   7.3467693
   7.3484912   7.4551990   7.7758295   7.3437832   7.3484852   7.3469721
   7.3539373   7.3094266   7.7758385   7.4185774   7.3484812   7.3467959
   7.3468759   7.3480970   7.3596092   7.3437711  16.7241371
 SUMMED SPIN DENSITY           0.00000000
 TOTAL ATOMIC SPINS  :
[...]
                 28 B    (  0  0  0)     2.725     1.442    -0.000
                 71 PT   (  0 -1  0)     3.792     2.007     0.000
                 51 N    ( -1 -1  0)     4.634     2.452    -0.000
                 52 N    (  0  0  0)     4.690     2.482    -0.000
                 58 N    (  0  0  0)     4.698     2.486    -0.000

 ATOM A  58 N    ATOM B     CELL      R(AB)/AU R(AB)/ANG    OVPOP(AB)
                 23 B    (  0  0  0)     2.725     1.442     0.000
                 29 B    (  0  0  0)     2.727     1.443     0.000
                 28 B    (  0  0  0)     2.773     1.467     0.000
                 64 N    (  0  0  0)     4.698     2.486     0.000
                 57 N    (  0  0  0)     4.698     2.486    -0.000
                 52 N    (  0  0  0)     4.717     2.496     0.000

 ATOM A  59 N    ATOM B     CELL      R(AB)/AU R(AB)/ANG    OVPOP(AB)
                 30 B    (  0  0  0)     2.721     1.440     0.000
                 35 B    (  0  0  0)     2.721     1.440     0.000
                 29 B    (  0  0  0)     2.725     1.442    -0.000
                 54 N    (  0  0  0)     4.688     2.481     0.000
                 65 N    (  0  0  0)     4.707     2.491    -0.000
                 64 N    (  0  0  0)     4.715     2.495     0.000

 ATOM A  60 N    ATOM B     CELL      R(AB)/AU R(AB)/ANG    OVPOP(AB)
                 25 B    (  0  0  0)     2.719     1.439     0.000
                 31 B    (  0  0  0)     2.724     1.442     0.000
                 30 B    (  0  0  0)     2.728     1.443     0.000
                 55 N    (  0  0  0)     4.684     2.479     0.000
                 66 N    (  0  0  0)     4.702     2.488    -0.000
                 67 N    (  0  0  0)     4.712     2.494    -0.000

 ATOM A  61 N    ATOM B     CELL      R(AB)/AU R(AB)/ANG    OVPOP(AB)
                 26 B    (  0  0  0)     2.714     1.436    -0.000
                 32 B    (  0  1  0)     2.731     1.445    -0.000
                 31 B    (  0  0  0)     2.743     1.451     0.000
                 56 N    ( -1  0  0)     4.681     2.477     0.000
                 68 N    (  0  0  0)     4.704     2.489    -0.000
                 67 N    (  0  0  0)     4.718     2.497     0.000

 ATOM A  62 N    ATOM B     CELL      R(AB)/AU R(AB)/ANG    OVPOP(AB)
                 32 B    (  0  0  0)     2.801     1.482     0.000
                 27 B    (  0  0  0)     2.818     1.491    -0.000
                 33 B    (  0  0  0)     2.904     1.537     0.000
                 71 PT   (  0 -1  0)     4.305     2.278    -0.000
                 68 N    (  0 -1  0)     4.800     2.540    -0.000
                 61 N    (  0 -1  0)     4.805     2.542     0.000

 ATOM A  63 N    ATOM B     CELL      R(AB)/AU R(AB)/ANG    OVPOP(AB)
                 34 B    (  0  0  0)     2.639     1.397     0.000
                 33 B    (  0  0  0)     2.653     1.404     0.000
                 71 PT   (  0 -1  0)     3.683     1.949     0.000
                 70 N    (  0  0  0)     4.543     2.404     0.000
                 69 N    (  0  0  0)     4.600     2.434    -0.000
                 64 N    (  0  0  0)     4.680     2.477     0.000

 ATOM A  64 N    ATOM B     CELL      R(AB)/AU R(AB)/ANG    OVPOP(AB)
                 35 B    (  0  0  0)     2.717     1.438     0.000
                 34 B    (  0  0  0)     2.720     1.439     0.000
                 28 B    (  0  0  0)     2.754     1.457     0.000
                 63 N    (  0  0  0)     4.680     2.477     0.000
                 58 N    (  0  0  0)     4.698     2.486     0.000
                 59 N    (  0  0  0)     4.715     2.495     0.000

 ATOM A  65 N    ATOM B     CELL      R(AB)/AU R(AB)/ANG    OVPOP(AB)
                  1 B    (  0  0  0)     2.709     1.434     0.000
                  6 B    (  0  0  0)     2.716     1.437     0.000
                 35 B    (  0  0  0)     2.738     1.449    -0.000
                 70 N    (  0  0  0)     4.659     2.466     0.000
                 66 N    (  0  0  0)     4.697     2.486     0.000
                 59 N    (  0  0  0)     4.707     2.491    -0.000

 ATOM A  66 N    ATOM B     CELL      R(AB)/AU R(AB)/ANG    OVPOP(AB)
                  2 B    (  0  0  0)     2.716     1.437    -0.000
                  1 B    (  0  0  0)     2.720     1.439    -0.000
                 30 B    (  0  0  0)     2.721     1.440     0.000
                 65 N    (  0  0  0)     4.697     2.486     0.000
                 60 N    (  0  0  0)     4.702     2.488    -0.000
                 38 N    (  0  0  0)     4.707     2.491     0.000

 ATOM A  67 N    ATOM B     CELL      R(AB)/AU R(AB)/ANG    OVPOP(AB)
                 31 B    (  0  0  0)     2.713     1.436     0.000
                  3 B    (  0  0  0)     2.718     1.438     0.000
                  2 B    (  0  0  0)     2.727     1.443     0.000
                 39 N    (  0  0  0)     4.707     2.491     0.000
                 66 N    (  0  0  0)     4.712     2.493    -0.000
                 60 N    (  0  0  0)     4.712     2.494    -0.000

 ATOM A  68 N    ATOM B     CELL      R(AB)/AU R(AB)/ANG    OVPOP(AB)
                 32 B    (  0  1  0)     2.729     1.444    -0.000
                  4 B    (  0  1  0)     2.732     1.446    -0.000
                  3 B    (  0  0  0)     2.738     1.449    -0.000
                 69 N    (  0  1  0)     4.673     2.473    -0.000
                 61 N    (  0  0  0)     4.704     2.489    -0.000
                 67 N    (  0  0  0)     4.725     2.500     0.000

 ATOM A  69 N    ATOM B     CELL      R(AB)/AU R(AB)/ANG    OVPOP(AB)
                 33 B    (  0  0  0)     2.681     1.419     0.000
                  4 B    (  0  0  0)     2.689     1.423    -0.000
                  5 B    (  0  0  0)     2.732     1.446    -0.000
                 63 N    (  0  0  0)     4.600     2.434    -0.000
                 40 N    (  0  0  0)     4.642     2.456     0.000
                 68 N    (  0 -1  0)     4.673     2.473    -0.000

 ATOM A  70 N    ATOM B     CELL      R(AB)/AU R(AB)/ANG    OVPOP(AB)
                  6 B    (  0  0  0)     2.689     1.423     0.000
                  5 B    (  0  0  0)     2.704     1.431     0.000
                 34 B    (  0  0  0)     2.722     1.440    -0.000
                 63 N    (  0  0  0)     4.543     2.404     0.000
                 65 N    (  0  0  0)     4.659     2.466     0.000
                 36 N    (  0  0  0)     4.660     2.466    -0.000

 ATOM A  71 PT   ATOM B     CELL      R(AB)/AU R(AB)/ANG    OVPOP(AB)
                 27 B    (  0  1  0)     3.665     1.939     0.000
                 63 N    (  0  1  0)     3.683     1.949     0.000
                 57 N    (  0  1  0)     3.792     2.007     0.000
                 21 B    ( -1  0  0)     4.025     2.130     0.000
                 62 N    (  0  1  0)     4.305     2.278    -0.000
                 33 B    (  0  1  0)     4.531     2.398     0.000
 EIGENVECTORS IN FORTRAN UNIT 10

 FINAL OPTIMIZED GEOMETRY - DIMENSIONALITY OF THE SYSTEM      2
 (NON PERIODIC DIRECTION: LATTICE PARAMETER FORMALLY SET TO 500)
 *******************************************************************************
 LATTICE PARAMETERS (ANGSTROMS AND DEGREES) - BOHR = 0.5291772083 ANGSTROM
 PRIMITIVE CELL
         A              B              C           ALPHA      BETA       GAMMA 
    14.95409954    14.91382418   500.00000000    90.000000  90.000000 119.783477
 *******************************************************************************
 ATOMS IN THE ASYMMETRIC UNIT   71 - ATOMS IN THE UNIT CELL:   71
     ATOM                 X/A                 Y/B             Z(ANGSTROM)
 *******************************************************************************
      1 T   5 B    -5.634234098232E-02  5.538800102783E-02  2.952218344681E-02
      2 T   5 B    -5.714526124094E-02  2.217915203642E-01  3.021186441691E-02
      3 T   5 B    -5.788355922701E-02  3.887443958157E-01 -1.867256259004E-02
      4 T   5 B    -5.463654930565E-02 -4.437264450961E-01 -7.117371416733E-02
      5 T   5 B    -5.227580030691E-02 -2.745742490134E-01 -1.168073889492E-01
      6 T   5 B    -5.306680939238E-02 -1.083174011308E-01 -3.376529784261E-02
      7 T   5 B     1.119504908846E-01  5.710282383304E-02  8.287867357495E-02
      8 T   5 B     1.096731404041E-01  2.218742109408E-01  6.142584368612E-02
      9 T   5 B     1.089523641124E-01  3.883370320324E-01  3.712586612533E-02
     10 T   5 B     1.103471952971E-01 -4.447645259325E-01  2.914205675153E-02
     11 T   5 B     1.118987163655E-01 -2.772650746466E-01  3.363980573255E-02
     12 T   5 B     1.123647623963E-01 -1.097296642552E-01  5.750292371737E-02
     13 T   5 B     2.773818038598E-01  5.570481784949E-02  1.337660071352E-01
     14 T   5 B     2.781704454082E-01  2.236762530674E-01  8.904514427904E-02
     15 T   5 B     2.752307794996E-01  3.877174152031E-01  4.053373304062E-02
     16 T   5 B     2.759752933769E-01 -4.453982095263E-01  3.682436353048E-02
     17 T   5 B     2.777394102131E-01 -2.783035964858E-01  6.828654294964E-02
     18 T   5 B     2.779879743654E-01 -1.112199157419E-01  1.103846621789E-01
     19 T   5 B     4.437986744133E-01  5.456330392336E-02  1.536251948014E-01
     20 T   5 B     4.416670639385E-01  2.209043996570E-01  1.660244330958E-01
     21 T   5 B     4.466945726811E-01  3.924297628545E-01 -3.515507012897E-02
     22 T   5 B     4.408625771864E-01 -4.465115467631E-01 -4.779757391992E-02
     23 T   5 B     4.440978926517E-01 -2.793785606239E-01  1.196541282033E-02
     24 T   5 B     4.442395422675E-01 -1.123608236218E-01  8.683590395652E-02
     25 T   5 B    -3.896059987195E-01  5.327318855983E-02  8.418901656519E-02
     26 T   5 B    -3.898340395347E-01  2.194665704830E-01  1.320386938842E-01
     27 T   5 B    -3.948575612346E-01  3.799724117574E-01  8.719865651225E-02
     28 T   5 B    -3.896534498471E-01 -2.839848669698E-01 -1.241523797585E-01
     29 T   5 B    -3.895948598023E-01 -1.144104174216E-01  9.533035290617E-03
     30 T   5 B    -2.232954543189E-01  5.442706087486E-02  3.257761639910E-02
     31 T   5 B    -2.236293750400E-01  2.219694866995E-01  2.846347134993E-02
     32 T   5 B    -2.252594624264E-01  3.895792465391E-01 -9.776299849047E-02
     33 T   5 B    -2.150600452115E-01 -4.359078503333E-01 -3.673628814331E-01
     34 T   5 B    -2.162304071558E-01 -2.721317461881E-01 -3.482690030496E-01
     35 T   5 B    -2.228503881172E-01 -1.124692128466E-01 -5.728639257364E-02
     36 T   7 N     5.742252992855E-02 -5.351109442242E-02  5.400824239549E-02
     37 T   7 N     5.473632980796E-02  1.111298232260E-01  6.416745499990E-02
     38 T   7 N     5.364258322542E-02  2.772773023277E-01  4.284388861896E-02
     39 T   7 N     5.311414269849E-02  4.440229666632E-01  1.615400704738E-02
     40 T   7 N     5.559968201270E-02 -3.886557986269E-01  1.016845880218E-02
     41 T   7 N     5.762184575867E-02 -2.205610447414E-01  3.033246361160E-03
     42 T   7 N     2.228752019445E-01 -5.501343923965E-02  1.129350473809E-01
     43 T   7 N     2.229350027008E-01  1.124229330693E-01  1.161437978071E-01
     44 T   7 N     2.204670072493E-01  2.770047413824E-01  6.633618267029E-02
     45 T   7 N     2.196078301477E-01  4.434898294799E-01  4.337317250314E-02
     46 T   7 N     2.209333816288E-01 -3.894114297959E-01  5.227229781398E-02
     47 T   7 N     2.225428023099E-01 -2.222048249157E-01  8.182828448690E-02
     48 T   7 N     3.888486990310E-01 -5.615620657467E-02  1.288741161555E-01
     49 T   7 N     3.881707255267E-01  1.105988513517E-01  1.689267682096E-01
     50 T   7 N     3.899387355809E-01  2.799271552643E-01  7.705550988271E-02
     51 T   7 N     3.851877696391E-01  4.422242170215E-01 -6.624138614686E-03
     52 T   7 N     3.863119001065E-01 -3.901152358650E-01  7.349976836443E-03
     53 T   7 N     3.886485276721E-01 -2.231674828834E-01  6.296562511575E-02
     54 T   7 N    -4.448664201886E-01 -5.773617025248E-02  6.535166196858E-02
     55 T   7 N    -4.451675024606E-01  1.092314128542E-01  1.368766400184E-01
     56 T   7 N    -4.468933142722E-01  2.737869273831E-01  2.295301328268E-01
     57 T   7 N    -4.505458622942E-01 -3.951678957727E-01 -1.350130082432E-01
     58 T   7 N    -4.448720071528E-01 -2.258643714084E-01 -3.186903615337E-02
     59 T   7 N    -2.785362067135E-01 -5.678680596045E-02  5.421727537580E-03
     60 T   7 N    -2.788149015808E-01  1.106205577426E-01  5.481352903227E-02
     61 T   7 N    -2.796027385679E-01  2.783363517161E-01  2.331542665374E-02
     62 T   7 N    -2.827090657766E-01  4.466129599242E-01 -1.953836533944E-01
     63 T   7 N    -2.603797783010E-01 -3.760733352571E-01 -7.061648854464E-01
     64 T   7 N    -2.775831805904E-01 -2.231986202766E-01 -1.706340536797E-01
     65 T   7 N    -1.112537411748E-01 -5.530286528968E-02 -2.062218593182E-02
     66 T   7 N    -1.123657384269E-01  1.107726127775E-01  3.345419475332E-02
     67 T   7 N    -1.130114638754E-01  2.776281587615E-01  6.358707802484E-03
     68 T   7 N    -1.139865280340E-01  4.446799139068E-01 -8.462976743312E-02
     69 T   7 N    -1.070474971204E-01 -3.862306775487E-01 -1.589823002486E-01
     70 T   7 N    -1.062404957987E-01 -2.178156114886E-01 -1.577618656703E-01
     71 T 278 PT   -3.958735920986E-01 -4.932615994181E-01 -3.104090452023E-01

 T = ATOM BELONGING TO THE ASYMMETRIC UNIT
 INFORMATION **** fort.34 **** GEOMETRY OUTPUT FILE

 DIRECT LATTICE VECTORS CARTESIAN COMPONENTS (ANGSTROM)
          X                    Y                    Z
   0.129705210746E+02  -0.744249126666E+01   0.000000000000E+00
   0.165933338415E-01   0.149138149532E+02   0.000000000000E+00
   0.000000000000E+00   0.000000000000E+00   0.500000000000E+03


 CARTESIAN COORDINATES - PRIMITIVE CELL
 *******************************************************************************
 *      ATOM          X(ANGSTROM)         Y(ANGSTROM)         Z(ANGSTROM)
 *******************************************************************************
    1     5 B    -7.298704495124E-01  1.245373778659E+00  2.952218344681E-02
    2     5 B    -7.375235544993E-01  3.733060800609E+00  3.021186441691E-02
    3     5 B    -7.443293592887E-01  6.228459867305E+00 -1.867256259004E-02
    4     5 B    -7.160274152509E-01 -6.211022050940E+00 -7.117371416733E-02
    5     5 B    -6.826004717513E-01 -3.705887353448E+00 -1.168073889492E-01
    6     5 B    -6.901015163842E-01 -1.220476411220E+00 -3.376529784261E-02
    7     5 B     1.453003727552E+00  1.843039724187E-02  8.287867357495E-02
    8     5 B     1.426199411784E+00  2.492749535206E+00  6.142584368612E-02
    9     5 B     1.419612740864E+00  4.980709616804E+00  3.712586612533E-02
   10     5 B     1.423880495865E+00 -7.454393874788E+00  2.914205675153E-02
   11     5 B     1.446783906894E+00 -4.967885235555E+00  3.363980573255E-02
   12     5 B     1.455608737754E+00 -2.472761670390E+00  5.750292371737E-02
   13     5 B     3.598710861316E+00 -1.233640307349E+00  1.337660071352E-01
   14     5 B     3.611727159242E+00  1.265585137070E+00  8.904514427904E-02
   15     5 B     3.576320150388E+00  3.733943111716E+00  4.053373304062E-02
   16     5 B     3.588746051476E+00  6.217284765047E+00  3.682436353048E-02
   17     5 B     3.597806888934E+00 -6.217641473707E+00  6.828654294964E-02
   18     5 B     3.603803370803E+00 -3.727636313931E+00  1.103846621789E-01
   19     5 B     5.757205446480E+00 -2.489220740529E+00  1.536251948014E-01
   20     5 B     5.732317501228E+00  7.424072690792E-03  1.660244330958E-01
   21     5 B     5.800373086940E+00  2.528104409283E+00 -3.515507012897E-02
   22     5 B    -7.259712841368E+00 -2.497815196723E+00 -4.779757391992E-02
   23     5 B    -7.214975820508E+00 -2.930357596903E-02  1.196541282033E-02
   24     5 B     5.760153904500E+00 -4.981977445110E+00  8.683590395652E-02
   25     5 B    -5.052508837385E+00  3.694145719054E+00  8.418901656519E-02
   26     5 B    -5.052708943316E+00  6.174420255273E+00  1.320386938842E-01
   27     5 B    -5.131796644227E+00 -6.308252765843E+00  8.719865651225E-02
   28     5 B    -5.058720538741E+00 -1.335305357975E+00 -1.241523797585E-01
   29     5 B    -5.055146789878E+00  1.193260547474E+00  9.533035290617E-03
   30     5 B    -2.895355269717E+00  2.473589582985E+00  3.257761639910E-02
   31     5 B    -2.896906308063E+00  4.974771520588E+00  2.846347134993E-02
   32     5 B    -2.931861520004E+00 -7.427210578845E+00 -9.776299849047E-02
   33     5 B    -2.796674013208E+00 -4.900466508208E+00 -3.673628814331E-01
   34     5 B    -2.809136625900E+00 -2.449229588688E+00 -3.482690030496E-01
   35     5 B    -2.892351894755E+00 -1.878296098822E-02 -5.728639257364E-02
   36     7 N     7.439122071418E-01 -1.225421237660E+00  5.400824239549E-02
   37     7 N     7.118027335777E-01  1.249994962806E+00  6.416745499990E-02
   38     7 N     7.003732110662E-01  3.736027920452E+00  4.284388861896E-02
   39     7 N     6.962859285500E-01  6.226774816600E+00  1.615400704738E-02
   40     7 N     7.147077518714E-01 -6.210140809004E+00  1.016845880218E-02
   41     7 N     7.437255217231E-01 -3.718256690978E+00  3.033246361160E-03
   42     7 N     2.889894647466E+00 -2.479206996784E+00  1.129350473809E-01
   43     7 N     2.893448622059E+00  1.746300965364E-02  1.161437978071E-01
   44     7 N     2.864168395934E+00  2.490373678086E+00  6.633618267029E-02
   45     7 N     2.855786963876E+00  4.979695892510E+00  4.337317250314E-02
   46     7 N     2.859159448646E+00 -7.451904767909E+00  5.227229781398E-02
   47     7 N     2.882808988523E+00 -4.970194503143E+00  8.182828448690E-02
   48     7 N     5.042638426934E+00 -3.731506319916E+00  1.288741161555E-01
   49     7 N     5.036611779655E+00 -1.239506431614E+00  1.689267682096E-01
   50     7 N     5.062353512399E+00  1.272666159885E+00  7.705550988271E-02
   51     7 N     5.003424057853E+00  3.728493528903E+00 -6.624138614686E-03
   52     7 N    -7.966327745253E+00 -1.250738114190E+00  7.349976836443E-03
   53     7 N    -7.933250248371E+00  1.221699450373E+00  6.296562511575E-02
   54     7 N    -5.771107313992E+00  2.449847887834E+00  6.535166196858E-02
   55     7 N    -5.772241959098E+00  4.942212327644E+00  1.368766400184E-01
   56     7 N     7.178624961629E+00 -3.328410647286E-02  2.295301328268E-01
   57     7 N    -5.850371754784E+00 -2.540277227632E+00 -1.350130082432E-01
   58     7 N    -5.773969587198E+00 -5.754341168153E-02 -3.186903615337E-02
   59     7 N    -3.613702021649E+00  1.226095370038E+00  5.421727537580E-03
   60     7 N    -3.614538993026E+00  3.724851998218E+00  5.481352903227E-02
   61     7 N    -3.621974685110E+00  6.231997784158E+00  2.331542665374E-02
   62     7 N    -3.676066431539E+00 -6.149052160122E+00 -1.953836533944E-01
   63     7 N    -3.383501712256E+00 -3.670813904824E+00 -7.061648854464E-01
   64     7 N    -3.604102103025E+00 -1.262832523292E+00 -1.706340536797E-01
   65     7 N    -1.443936653443E+00  3.228297766463E-03 -2.062218593182E-02
   66     7 N    -1.455604091386E+00  2.488323275756E+00  3.345419475332E-02
   67     7 N    -1.461210797147E+00  4.981581818481E+00  6.358707802484E-03
   68     7 N    -1.471085941823E+00  7.480217688804E+00 -8.462976743312E-02
   69     7 N    -1.394870671957E+00 -4.963472791761E+00 -1.589823002486E-01
   70     7 N    -1.381608876892E+00 -2.457767761503E+00 -1.577618656703E-01
   71   278 PT   -5.126278289746E+00  1.050368848783E+01 -3.104090452023E-01

 ****    1 SYMMOPS - TRANSLATORS IN FRACTIONAL UNITS
 **** MATRICES AND TRANSLATORS IN THE CRYSTALLOGRAPHIC REFERENCE FRAME
   V INV                    ROTATION MATRICES                   TRANSLATORS
   1   1  1.00  0.00  0.00  0.00  1.00  0.00 -0.00 -0.00  1.00  0.00  0.00  0.00
 TTTTTTTTTTTTTTTTTTTTTTTTTTTTTT END         TELAPSE    63792.85 TCPU    63562.61
 EEEEEEEEEE TERMINATION  DATE 06 04 2023 TIME 14:50:46.3
NODE    0 CPU TIME =     63562.607
    TOTAL CPU TIME =   4068461.288
